

                 64  atoms
                 56  bonds
                 72  angles
                 64  dihedrals
                 8  impropers

                 4  atom types
                 3  bond types
                 4  angle types
                 2  dihedral types
                 1  improper types

  0.000000   8.882200 xlo xhi
  0.000000   8.882200 ylo yhi
  0.000000   6.988000 zlo zhi

Masses

       1         1.008  # HGP1
       2        12.011  # CG2O6
       3        14.007  # NG2S2
       4        15.999  # OG2D1

Pair Coeffs

       1 0.04600000000000 0.40001352444501 0.04600000000000 0.40001352444501 # HGP1
       2 0.07000000000000 3.56359487256136 0.07000000000000 3.56359487256136 # CG2O6
       3 0.20000000000000 3.29632525711926 0.20000000000000 3.29632525711926 # NG2S2
       4 0.12000000000000 3.02905564167715 0.12000000000000 2.49451641079295 # OG2D1

Atoms

1	1	3	-0.69	6.684744	4.564385	2.421971	#	UREA-1-UREA-N1-NG2S2
2	1	1	0.34	6.88406	4.137862	1.540015	#	UREA-1-UREA-H11-HGP1
3	1	1	0.34	6.269057	5.473833	2.456003	#	UREA-1-UREA-H12-HGP1
4	1	2	0.6	6.959559	3.955954	3.494	#	UREA-1-UREA-C2-CG2O6
5	1	4	-0.58	7.453676	2.872681	3.494	#	UREA-1-UREA-O2-OG2D1
6	1	3	-0.69	6.684744	4.564385	4.566029	#	UREA-1-UREA-N3-NG2S2
7	1	1	0.34	6.269056	5.473833	4.531998	#	UREA-1-UREA-H31-HGP1
8	1	1	0.34	6.88406	4.137862	5.447984	#	UREA-1-UREA-H32-HGP1
9	2	3	-0.69	2.243644	-0.123285	4.566029	#	UREA-1-UREA-N1-NG2S2			*** x+1/2,-y+1/2,-z
10	2	1	0.34	2.44296	0.303237999999999	5.447985	#	UREA-1-UREA-H11-HGP1
11	2	1	0.34	1.827957	-1.032733	4.531997	#	UREA-1-UREA-H12-HGP1
12	2	2	0.6	2.518459	0.485145999999999	3.494	#	UREA-1-UREA-C2-CG2O6
13	2	4	-0.58	3.012576	1.568419	3.494	#	UREA-1-UREA-O2-OG2D1
14	2	3	-0.69	2.243644	-0.123285	2.421971	#	UREA-1-UREA-N3-NG2S2
15	2	1	0.34	1.827956	-1.032733	2.456002	#	UREA-1-UREA-H31-HGP1
16	2	1	0.34	2.44296	0.303237999999999	1.540016	#	UREA-1-UREA-H32-HGP1
17	3	3	-0.69	6.638556	0.123285	4.566029	#	UREA-1-UREA-N1-NG2S2			***-x+1/2,y+1/2,-z
18	3	1	0.34	6.43924	-0.303237999999999	5.447985	#	UREA-1-UREA-H11-HGP1
19	3	1	0.34	7.054243	1.032733	4.531997	#	UREA-1-UREA-H12-HGP1
20	3	2	0.6	6.363741	-0.485145999999999	3.494	#	UREA-1-UREA-C2-CG2O6
21	3	4	-0.58	5.869624	-1.568419	3.494	#	UREA-1-UREA-O2-OG2D1
22	3	3	-0.69	6.638556	0.123285	2.421971	#	UREA-1-UREA-N3-NG2S2
23	3	1	0.34	7.054244	1.032733	2.456002	#	UREA-1-UREA-H31-HGP1
24	3	1	0.34	6.43924	-0.303237999999999	1.540016	#	UREA-1-UREA-H32-HGP1
25	4	3	-0.69	2.197456	4.317815	2.421971	#	UREA-1-UREA-N1-NG2S2			*** -x,-y,z
26	4	1	0.34	1.99814	4.744338	1.540015	#	UREA-1-UREA-H11-HGP1
27	4	1	0.34	2.613143	3.408367	2.456003	#	UREA-1-UREA-H12-HGP1
28	4	2	0.6	1.922641	4.926246	3.494	#	UREA-1-UREA-C2-CG2O6
29	4	4	-0.58	1.428524	6.009519	3.494	#	UREA-1-UREA-O2-OG2D1
30	4	3	-0.69	2.197456	4.317815	4.566029	#	UREA-1-UREA-N3-NG2S2
31	4	1	0.34	2.613144	3.408367	4.531998	#	UREA-1-UREA-H31-HGP1
32	4	1	0.34	1.99814	4.744338	5.447984	#	UREA-1-UREA-H32-HGP1
33	5	3	-0.69	8.758915	6.638556	8.060029	#	UREA-1-UREA-N1-NG2S2			*** -y+1/2,-x+1/2,-z+1/2
34	5	1	0.34	9.185438	6.43924	8.941985	#	UREA-1-UREA-H11-HGP1
35	5	1	0.34	7.849467	7.054243	8.025997	#	UREA-1-UREA-H12-HGP1
36	5	2	0.6	9.367346	6.363741	6.988	#	UREA-1-UREA-C2-CG2O6
37	5	4	-0.58	10.450619	5.869624	6.988	#	UREA-1-UREA-O2-OG2D1
38	5	3	-0.69	8.758915	6.638556	5.915971	#	UREA-1-UREA-N3-NG2S2
39	5	1	0.34	7.849467	7.054244	5.950002	#	UREA-1-UREA-H31-HGP1
40	5	1	0.34	9.185438	6.43924	5.034016	#	UREA-1-UREA-H32-HGP1
41	6	3	-0.69	4.317815	6.684744	5.915971	#	UREA-1-UREA-N1-NG2S2			*** -y,x,z+1/2
42	6	1	0.34	4.744338	6.88406	5.034015	#	UREA-1-UREA-H11-HGP1
43	6	1	0.34	3.408367	6.269057	5.950003	#	UREA-1-UREA-H12-HGP1
44	6	2	0.6	4.926246	6.959559	6.988	#	UREA-1-UREA-C2-CG2O6
45	6	4	-0.58	6.009519	7.453676	6.988	#	UREA-1-UREA-O2-OG2D1
46	6	3	-0.69	4.317815	6.684744	8.060029	#	UREA-1-UREA-N3-NG2S2
47	6	1	0.34	3.408367	6.269056	8.025998	#	UREA-1-UREA-H31-HGP1
48	6	1	0.34	4.744338	6.88406	8.941984	#	UREA-1-UREA-H32-HGP1
49	7	3	-0.69	4.564385	2.197456	5.915971	#	UREA-1-UREA-N1-NG2S2			*** y,-x,z+1/2
50	7	1	0.34	4.137862	1.99814	5.034015	#	UREA-1-UREA-H11-HGP1
51	7	1	0.34	5.473833	2.613143	5.950003	#	UREA-1-UREA-H12-HGP1
52	7	2	0.6	3.955954	1.922641	6.988	#	UREA-1-UREA-C2-CG2O6
53	7	4	-0.58	2.872681	1.428524	6.988	#	UREA-1-UREA-O2-OG2D1
54	7	3	-0.69	4.564385	2.197456	8.060029	#	UREA-1-UREA-N3-NG2S2
55	7	1	0.34	5.473833	2.613144	8.025998	#	UREA-1-UREA-H31-HGP1
56	7	1	0.34	4.137862	1.99814	8.941984	#	UREA-1-UREA-H32-HGP1
57	8	3	-0.69	0.123285	2.243644	1.072029	#	UREA-1-UREA-N1-NG2S2			*** y+1/2,x+1/2,-z+1/2
58	8	1	0.34	-0.303237999999999	2.44296	1.953985	#	UREA-1-UREA-H11-HGP1
59	8	1	0.34	1.032733	1.827957	1.037997	#	UREA-1-UREA-H12-HGP1
60	8	2	0.6	-0.485145999999999	2.518459	0	#	UREA-1-UREA-C2-CG2O6
61	8	4	-0.58	-1.568419	3.012576	0	#	UREA-1-UREA-O2-OG2D1
62	8	3	-0.69	0.123285	2.243644	-1.072029	#	UREA-1-UREA-N3-NG2S2
63	8	1	0.34	1.032733	1.827956	-1.037998	#	UREA-1-UREA-H31-HGP1
64	8	1	0.34	-0.303237999999999	2.44296	-1.953984	#	UREA-1-UREA-H32-HGP1




Bond Coeffs

           1  430.000   1.3600 # CG2O6 NG2S2
           2  650.000   1.2300 # CG2O6 OG2D1
           3  480.000   1.0000 # NG2S2 HGP1

Bonds

           1      3         1         2 # UREA-1-UREA-N1-NG2S2 UREA-1-UREA-H11-HGP1
           2      3         1         3 # UREA-1-UREA-N1-NG2S2 UREA-1-UREA-H12-HGP1
           3      1         1         4 # UREA-1-UREA-N1-NG2S2 UREA-1-UREA-C2-CG2O6
           4      2         4         5 # UREA-1-UREA-C2-CG2O6 UREA-1-UREA-O2-OG2D1
           5      1         4         6 # UREA-1-UREA-C2-CG2O6 UREA-1-UREA-N3-NG2S2
           6      3         6         7 # UREA-1-UREA-N3-NG2S2 UREA-1-UREA-H31-HGP1
           7      3         6         8 # UREA-1-UREA-N3-NG2S2 UREA-1-UREA-H32-HGP1
8	3	9	10
9	3	9	11
10	1	9	12
11	2	12	13
12	1	12	14
13	3	14	15
14	3	14	16
15	3	17	18
16	3	17	19
17	1	17	20
18	2	20	21
19	1	20	22
20	3	22	23
21	3	22	24
22	3	25	26
23	3	25	27
24	1	25	28
25	2	28	29
26	1	28	30
27	3	30	31
28	3	30	32
29	3	33	34
30	3	33	35
31	1	33	36
32	2	36	37
33	1	36	38
34	3	38	39
35	3	38	40
36	3	41	42
37	3	41	43
38	1	41	44
39	2	44	45
40	1	44	46
41	3	46	47
42	3	46	48
43	3	49	50
44	3	49	51
45	1	49	52
46	2	52	53
47	1	52	54
48	3	54	55
49	3	54	56
50	3	57	58
51	3	57	59
52	1	57	60
53	2	60	61
54	1	60	62
55	3	62	63
56	3	62	64


Angle Coeffs

           1   50.00000  120.00000    0.00000    0.00000 # CG2O6 NG2S2 HGP1
           2   23.00000  120.00000    0.00000    0.00000 # HGP1 NG2S2 HGP1
           3   70.00000  115.00000    0.00000    0.00000 # NG2S2 CG2O6 NG2S2
           4   75.00000  122.50000   50.00000    2.37000 # NG2S2 CG2O6 OG2D1

Angles

           1            2            2            1            3 # UREA-1-UREA-H11-HGP1 UREA-1-UREA-N1-NG2S2 UREA-1-UREA-H12-HGP1
           2            1            2            1            4 # UREA-1-UREA-H11-HGP1 UREA-1-UREA-N1-NG2S2 UREA-1-UREA-C2-CG2O6
           3            1            3            1            4 # UREA-1-UREA-H12-HGP1 UREA-1-UREA-N1-NG2S2 UREA-1-UREA-C2-CG2O6
           4            4            1            4            5 # UREA-1-UREA-N1-NG2S2 UREA-1-UREA-C2-CG2O6 UREA-1-UREA-O2-OG2D1
           5            3            1            4            6 # UREA-1-UREA-N1-NG2S2 UREA-1-UREA-C2-CG2O6 UREA-1-UREA-N3-NG2S2
           6            4            5            4            6 # UREA-1-UREA-O2-OG2D1 UREA-1-UREA-C2-CG2O6 UREA-1-UREA-N3-NG2S2
           7            1            4            6            7 # UREA-1-UREA-C2-CG2O6 UREA-1-UREA-N3-NG2S2 UREA-1-UREA-H31-HGP1
           8            1            4            6            8 # UREA-1-UREA-C2-CG2O6 UREA-1-UREA-N3-NG2S2 UREA-1-UREA-H32-HGP1
           9            2            7            6            8 # UREA-1-UREA-H31-HGP1 UREA-1-UREA-N3-NG2S2 UREA-1-UREA-H32-HGP1
10	2	10	9	11
11	1	10	9	12
12	1	11	9	12
13	4	9	12	13
14	3	9	12	14
15	4	13	12	14
16	1	12	14	15
17	1	12	14	16
18	2	15	14	16
19	2	18	17	19
20	1	18	17	20
21	1	19	17	20
22	4	17	20	21
23	3	17	20	22
24	4	21	20	22
25	1	20	22	23
26	1	20	22	24
27	2	23	22	24
28	2	26	25	27
29	1	26	25	28
30	1	27	25	28
31	4	25	28	29
32	3	25	28	30
33	4	29	28	30
34	1	28	30	31
35	1	28	30	32
36	2	31	30	32
37	2	34	33	35
38	1	34	33	36
39	1	35	33	36
40	4	33	36	37
41	3	33	36	38
42	4	37	36	38
43	1	36	38	39
44	1	36	38	40
45	2	39	38	40
46	2	42	41	43
47	1	42	41	44
48	1	43	41	44
49	4	41	44	45
50	3	41	44	46
51	4	45	44	46
52	1	44	46	47
53	1	44	46	48
54	2	47	46	48
55	2	50	49	51
56	1	50	49	52
57	1	51	49	52
58	4	49	52	53
59	3	49	52	54
60	4	53	52	54
61	1	52	54	55
62	1	52	54	56
63	2	55	54	56
64	2	58	57	59
65	1	58	57	60
66	1	59	57	60
67	4	57	60	61
68	3	57	60	62
69	4	61	60	62
70	1	60	62	63
71	1	60	62	64
72	2	63	62	64


Dihedral Coeffs

           1       1.5000        2          180 1.00 # NG2S2 CG2O6 NG2S2 HGP1
           2       1.4000        2          180 1.00 # OG2D1 CG2O6 NG2S2 HGP1

Dihedrals

           1        2            2            1            4            5 # H11-HGP1 N1-NG2S2 C2-CG2O6 O2-OG2D1
           2        1            2            1            4            6 # H11-HGP1 N1-NG2S2 C2-CG2O6 N3-NG2S2
           3        2            3            1            4            5 # H12-HGP1 N1-NG2S2 C2-CG2O6 O2-OG2D1
           4        1            3            1            4            6 # H12-HGP1 N1-NG2S2 C2-CG2O6 N3-NG2S2
           5        1            1            4            6            7 # N1-NG2S2 C2-CG2O6 N3-NG2S2 H31-HGP1
           6        1            1            4            6            8 # N1-NG2S2 C2-CG2O6 N3-NG2S2 H32-HGP1
           7        2            5            4            6            7 # O2-OG2D1 C2-CG2O6 N3-NG2S2 H31-HGP1
           8        2            5            4            6            8 # O2-OG2D1 C2-CG2O6 N3-NG2S2 H32-HGP1
9	2	10	9	12	13
10	1	10	9	12	14
11	2	11	9	12	13
12	1	11	9	12	14
13	1	9	12	14	15
14	1	9	12	14	16
15	2	13	12	14	15
16	2	13	12	14	16
17	2	18	17	20	21
18	1	18	17	20	22
19	2	19	17	20	21
20	1	19	17	20	22
21	1	17	20	22	23
22	1	17	20	22	24
23	2	21	20	22	23
24	2	21	20	22	24
25	2	26	25	28	29
26	1	26	25	28	30
27	2	27	25	28	29
28	1	27	25	28	30
29	1	25	28	30	31
30	1	25	28	30	32
31	2	29	28	30	31
32	2	29	28	30	32
33	2	34	33	36	37
34	1	34	33	36	38
35	2	35	33	36	37
36	1	35	33	36	38
37	1	33	36	38	39
38	1	33	36	38	40
39	2	37	36	38	39
40	2	37	36	38	40
41	2	42	41	44	45
42	1	42	41	44	46
43	2	43	41	44	45
44	1	43	41	44	46
45	1	41	44	46	47
46	1	41	44	46	48
47	2	45	44	46	47
48	2	45	44	46	48
49	2	50	49	52	53
50	1	50	49	52	54
51	2	51	49	52	53
52	1	51	49	52	54
53	1	49	52	54	55
54	1	49	52	54	56
55	2	53	52	54	55
56	2	53	52	54	56
57	2	58	57	60	61
58	1	58	57	60	62
59	2	59	57	60	61
60	1	59	57	60	62
61	1	57	60	62	63
62	1	57	60	62	64
63	2	61	60	62	63
64	2	61	60	62	64


Improper Coeffs

           1   80.000     0.00 # CG2O6 NG2S2 NG2S2 OG2D1

Impropers

           1            1            4            1            6            5 # C2-CG2O6 N1-NG2S2 N3-NG2S2 O2-OG2D1
2	1	12	9	14	13
3	1	20	17	22	21
4	1	28	25	30	29
5	1	36	33	38	37
6	1	44	41	46	45
7	1	52	49	54	53
8	1	60	57	62	61
