LAMMPS data file via write_data, version 31 Aug 2021, timestep = 1082

8 atoms
4 atom types
7 bonds
3 bond types
9 angles
4 angle types
8 dihedrals
2 dihedral types
1 impropers
1 improper types

-10 10 xlo xhi
-10 10 ylo yhi
-10 10 zlo zhi

Masses

1 1.008
2 12.011
3 14.007
4 15.999

Pair Coeffs # lj/charmm/coul/long

1 0.046 0.400014 0.046 0.400014
2 0.07 3.56359 0.07 3.56359
3 0.2 3.29633 0.2 3.29633
4 0.12 3.02906 0.12 2.49452

Bond Coeffs # harmonic

1 430 1.36
2 650 1.23
3 480 1

Angle Coeffs # charmm

1 50 120 0 0
2 23 120 0 0
3 70 115 0 0
4 75 122.5 50 2.37

Dihedral Coeffs # charmm

1 1.5 2 180 1
2 1.4 2 180 1

Improper Coeffs # harmonic

1 80 0

Atoms # full

1 1 3 -0.69 2.2548765755163753 2.022457878196371 3.5898340046688726 0 0 0
2 1 1 0.34 1.27375995182448 2.1515985880503634 3.620847399950941 0 0 0
3 1 1 0.34 2.745722303450305 1.3802586442815146 4.165909641022608 0 0 0
4 1 2 0.6 2.982892179401044 2.7551445318551333 2.7551418547456814 0 0 0
5 1 4 -0.58 4.190272517607421 2.650675525541822 2.6506753945787183 0 0 0
6 1 3 -0.69 2.254875143590213 3.5898127582551185 2.0224307789657954 0 0 0
7 1 1 0.34 2.7457289689326165 4.165922438675501 1.3802664684395598 0 0 0
8 1 1 0.34 1.273779987936206 3.6209609506067184 2.1517000272005835 0 0 0

Velocities

1 0.0077709748767584045 -0.00606629439976688 0.0020035310797219524
2 0.007471896605665588 -0.004217688484455353 0.004135941127588648
3 -0.0016127711138345538 -0.002707947202137176 0.012787040083504458
4 -0.0023753322366558537 0.005754301600961005 0.005754295248630315
5 -0.012561864299127075 -0.0013928797326467764 -0.0013929108598897775
6 0.007770841404499836 0.0020031933729554446 -0.006066534844012948
7 -0.0016124658807640038 0.012787547910673576 -0.0027064745012898173
8 0.0074727469014559626 0.004139697295780437 -0.004215678989067447

Bonds

1 3 1 2
2 3 1 3
3 1 1 4
4 2 4 5
5 1 4 6
6 3 6 7
7 3 6 8

Angles

1 2 2 1 3
2 1 2 1 4
3 1 3 1 4
4 4 1 4 5
5 3 1 4 6
6 4 5 4 6
7 1 4 6 7
8 1 4 6 8
9 2 7 6 8

Dihedrals

1 2 2 1 4 5
2 1 2 1 4 6
3 2 3 1 4 5
4 1 3 1 4 6
5 1 1 4 6 7
6 1 1 4 6 8
7 2 5 4 6 7
8 2 5 4 6 8

Impropers

1 1 4 1 6 5
