LAMMPS data file via write_data, version 9 Oct 2020, timestep = 14

8 atoms
4 atom types
7 bonds
3 bond types
9 angles
4 angle types
8 dihedrals
2 dihedral types
1 impropers
1 improper types

-10.0 10 xlo xhi
-10.0 10 ylo yhi
-10.0 10 zlo zhi

Masses

1 1.008
2 12.011
3 14.007
4 15.999

Pair Coeffs

       1 0.04600000000000 0.40001352444501 0.04600000000000 0.40001352444501 # HGP1
       2 0.07000000000000 3.56359487256136 0.07000000000000 3.56359487256136 # CG2O6
       3 0.20000000000000 3.29632525711926 0.20000000000000 3.29632525711926 # NG2S2
       4 0.12000000000000 3.02905564167715 0.12000000000000 2.49451641079295 # OG2D1

Bond Coeffs

           1  430.000   1.3600 # CG2O6 NG2S2
           2  650.000   1.2300 # CG2O6 OG2D1
           3  480.000   1.0000 # NG2S2 HGP1

Angle Coeffs

           1   50.00000  120.00000    0.00000    0.00000 # CG2O6 NG2S2 HGP1
           2   23.00000  120.00000    0.00000    0.00000 # HGP1 NG2S2 HGP1
           3   70.00000  115.00000    0.00000    0.00000 # NG2S2 CG2O6 NG2S2
           4   75.00000  122.50000   50.00000    2.37000 # NG2S2 CG2O6 OG2D1

Dihedral Coeffs

           1       1.5000        2          180 1.00 # NG2S2 CG2O6 NG2S2 HGP1
           2       1.4000        2          180 1.00 # OG2D1 CG2O6 NG2S2 HGP1

Improper Coeffs # harmonic

1 80 0

Atoms # full

1 1 3 -0.69 2.276634137491359 1.9766458099394175 3.585985789512409 0 0 0
2 1 1 0.34 1.2949212432665922 1.9951621386614724 3.5705892150795866 0 0 0
3 1 1 0.34 2.7607546997437105 1.3681745321507304 4.226919232992794 0 0 0
4 1 2 0.6 2.9835658769554447 2.786367971513673 2.7863679715136724 0 0 0
5 1 4 -0.58 4.191348195624145 2.7999701458418964 2.7999701458418964 0 0 0
6 1 3 -0.69 2.276634137491353 3.585985789512408 1.9766458099394175 0 0 0
7 1 1 0.34 2.7607546997437127 4.226919232992796 1.368174532150729 0 0 0
8 1 1 0.34 1.2949212432665957 3.570589215079586 1.995162138661472 0 0 0

Bonds

1 3 1 2
2 3 1 3
3 1 1 4
4 2 4 5
5 1 4 6
6 3 6 7
7 3 6 8

Angles

1 2 2 1 3
2 1 2 1 4
3 1 3 1 4
4 4 1 4 5
5 3 1 4 6
6 4 5 4 6
7 1 4 6 7
8 1 4 6 8
9 2 7 6 8

Dihedrals

1 2 2 1 4 5
2 1 2 1 4 6
3 2 3 1 4 5
4 1 3 1 4 6
5 1 1 4 6 7
6 1 1 4 6 8
7 2 5 4 6 7
8 2 5 4 6 8

Impropers

1 1 4 1 6 5
