

               677  atoms
               604  bonds
               980  angles
              1064  dihedrals
                 0  impropers
                 

                15  atom types
                13  bond types
                19  angle types
                23  dihedral types
                 0  improper types

    -10.0000      10.0000 xlo xhi
    -10.0000      10.0000 ylo yhi
    -10.0000      10.0000 zlo zhi

Masses

       1         1.008  # H in EtOH
       2         1.008  # HA2 in EtOH
       3         1.008  # HA3 in EtOH
       4         1.008  # HP in para
       5        12.011  # C in para
       6        12.011  # CA in para
       7        12.011  # CT2 in EtOH
       8        12.011  # CT3 in EtOH
       9        14.007  # NH1 in para
      10        15.999  # O in para
      11        15.999  # OH1 in EtOH
      12         1.008  # H in para (same as type 1)
      13         1.008  # HA3 in para (same as type 3)
      14        12.011  # CT3 in para (same as type 8)
      15        15.999  # OH1 in para (same as type 11)

Pair Coeffs

       1 0.04600000000000 0.40001352444501 1 0.04600000000000 0.40001352444501 # H
       2 0.03400000000000 2.38760856461611 1 0.03400000000000 2.38760856461611 # HA2
       3 0.02400000000000 2.38760856461611 1 0.02400000000000 2.38760856461611 # HA3
       4 0.03000000000000 2.42003727795642 1 0.03000000000000 2.42003727795642 # HP
       5 0.11000000000000 3.56359487256136 1 0.11000000000000 3.56359487256136 # C
       6 0.07000000000000 3.55005321204562 1 0.07000000000000 3.55005321204562 # CA
       7 0.05600000000000 3.58141284692416 1 0.01000000000000 3.38541512893329 # CT2
       8 0.07800000000000 3.63486677001258 1 0.01000000000000 3.38541512893329 # CT3
       9 0.20000000000000 3.29632525711926 1 0.20000000000000 2.76178602623505 # NH1
      10 0.12000000000000 3.02905564167715 1 0.12000000000000 2.49451641079295 # O
      11 0.15210000000000 3.15378146221680 1 0.15210000000000 3.15378146221680 # OH1
      12 0.04600000000000 0.40001352444501 1 0.04600000000000 0.40001352444501 # H in para
      13 0.02400000000000 2.38760856461611 1 0.02400000000000 2.38760856461611 # HA3 in para
      14 0.07800000000000 3.63486677001258 1 0.01000000000000 3.38541512893329 # CT3 in para
      15 0.15210000000000 3.15378146221680 1 0.15210000000000 3.15378146221680 # OH1 in para

Atoms

           1        1     14  -0.270    -1.9052567712    -3.0098510444    -0.9491670726 # HAB1-1-PACP-C14-CT3
           2        1     13   0.090    -1.6204954493    -4.0280709728    -0.6198061992 # HAB1-1-PACP-H141-HA3
           3        1     13   0.090    -1.7955601944    -2.9271221861    -2.0485277945 # HAB1-1-PACP-H142-HA3
           4        1     13   0.090    -2.9570636815    -2.8230138747    -0.6496384775 # HAB1-1-PACP-H143-HA3
           5        1      5   0.520    -1.0022423820    -2.0664529104    -0.2525114009 # HAB1-1-PACP-C15-C
           6        1     10  -0.520    -0.3330141790    -2.4504559928     0.6786104750 # HAB1-1-PACP-O29-O
           7        1      9  -0.470    -0.9621122221    -0.8109473528    -0.7526892998 # HAB1-1-PACP-N21-NH1
           8        1     12   0.330    -1.5235357027    -0.5790851808    -1.5295208159 # HAB1-1-PACP-H211-H
           9        1      6   0.140    -0.1171083266     0.2271896950    -0.2706835282 # HAB1-1-PACP-C22-CA
          10        1      6  -0.115    -0.6331249702     1.5336843420    -0.2490442676 # HAB1-1-PACP-C23-CA
          11        1      4   0.115    -1.6264699582     1.7162680098    -0.6296109792 # HAB1-1-PACP-H231-HP
          12        1      6  -0.115     0.1252330240     2.5883234394     0.2904394881 # HAB1-1-PACP-C24-CA
          13        1      4   0.115    -0.2718677185     3.5935393653     0.3153374538 # HAB1-1-PACP-H241-HP
          14        1      6  -0.115     1.9270205449     1.0380353949     0.7773646512 # HAB1-1-PACP-C26-CA
          15        1      4   0.115     2.9107371891     0.8327435988     1.1716380845 # HAB1-1-PACP-H261-HP
          16        1      6  -0.115     1.1702210748    -0.0072426135     0.2368773355 # HAB1-1-PACP-C27-CA
          17        1      4   0.115     1.5841896359    -1.0051320642     0.2268596002 # HAB1-1-PACP-H271-HP
          18        1      6   0.110     1.4037497795     2.3314587555     0.8030537939 # HAB1-1-PACP-C25-CA
          19        1     15  -0.540     2.1944619942     3.3591385600     1.3353986349 # HAB1-1-PACP-O28-OH1
          20        1     12   0.430     2.9321675435     2.9391295950     1.7793595670 # HAB1-1-PACP-H281-H
          21        1      7   0.050    -1.4536826680     0.8868988619    -5.4747565565 # SV1-1-ETOH-C1-CT2
          22        1     11  -0.660    -0.3847038352     0.2004169287    -4.8368550101 # SV1-1-ETOH-O1-OH1
          23        1      1   0.430     0.1479391058    -0.1825753852    -5.5389217121 # SV1-1-ETOH-HO1-H
          24        1      2   0.090    -2.2817679303     0.1750440603    -5.7033621482 # SV1-1-ETOH-H11-HA2
          25        1      2   0.090    -1.1070105011     1.3451018906    -6.4297946041 # SV1-1-ETOH-H12-HA2
          26        1      8  -0.270    -1.9274820070     1.9684546488    -4.5185453822 # SV1-1-ETOH-C2-CT3
          27        1      3   0.090    -1.1375627560     2.7374797505    -4.3806541482 # SV1-1-ETOH-H21-HA3
          28        1      3   0.090    -2.1413189112     1.5231318682    -3.5240061869 # SV1-1-ETOH-H22-HA3
          29        1      3   0.090    -2.8451245693     2.4641353471    -4.9003457876 # SV1-1-ETOH-H23-HA3
          30        2      7   0.050     2.4113221961     3.3508576638    -3.8059539535 # SV1-2-ETOH-C1-CT2
          31        2     11  -0.660     3.5936570443     3.7419299909    -4.4848145604 # SV1-2-ETOH-O1-OH1
          32        2      1   0.430     3.2982755544     4.3068323699    -5.2081796339 # SV1-2-ETOH-HO1-H
          33        2      2   0.090     1.9839043529     2.4301909270    -4.2692776356 # SV1-2-ETOH-H11-HA2
          34        2      2   0.090     1.6488871451     4.1586450228    -3.8652552214 # SV1-2-ETOH-H12-HA2
          35        2      8  -0.270     2.7548422760     3.0981591424    -2.3483673890 # SV1-2-ETOH-C2-CT3
          36        2      3   0.090     3.1309122592     4.0239114332    -1.8634379467 # SV1-2-ETOH-H21-HA3
          37        2      3   0.090     3.5197383099     2.2989395162    -2.2555342318 # SV1-2-ETOH-H22-HA3
          38        2      3   0.090     1.8402221464     2.7666588934    -1.8157932714 # SV1-2-ETOH-H23-HA3
          39        3      7   0.050    -5.8169885926     1.5052365129    -2.2611947562 # SV1-3-ETOH-C1-CT2
          40        3     11  -0.660    -4.4938555048     1.5812067451    -2.7563867934 # SV1-3-ETOH-O1-OH1
          41        3      1   0.430    -4.5499572775     1.6579267973    -3.7147348689 # SV1-3-ETOH-HO1-H
          42        3      2   0.090    -6.3187322707     0.5918803730    -2.6542386699 # SV1-3-ETOH-H11-HA2
          43        3      2   0.090    -6.4019316859     2.4026816441    -2.5732298400 # SV1-3-ETOH-H12-HA2
          44        3      8  -0.270    -5.6874251237     1.4323245844    -0.7514941964 # SV1-3-ETOH-C2-CT3
          45        3      3   0.090    -5.2220177337     2.3648266070    -0.3650509079 # SV1-3-ETOH-H21-HA3
          46        3      3   0.090    -5.0406952165     0.5748009348    -0.4637712570 # SV1-3-ETOH-H22-HA3
          47        3      3   0.090    -6.6804269910     1.3011675990    -0.2788153954 # SV1-3-ETOH-H23-HA3
          48        4      7   0.050    -1.9709337150     1.0738864850     5.3584132548 # SV1-4-ETOH-C1-CT2
          49        4     11  -0.660    -0.8646845212     1.6653271250     4.6986753808 # SV1-4-ETOH-O1-OH1
          50        4      1   0.430    -1.0470747067     1.6199430534     3.7535047500 # SV1-4-ETOH-HO1-H
          51        4      2   0.090    -2.3050167984     0.1563766357     4.8169808661 # SV1-4-ETOH-H11-HA2
          52        4      2   0.090    -2.8085944239     1.8065763219     5.3889315621 # SV1-4-ETOH-H12-HA2
          53        4      8  -0.270    -1.5255201616     0.7181808472     6.7674722663 # SV1-4-ETOH-C2-CT3
          54        4      3   0.090    -1.0512591800     1.5908383839     7.2633190314 # SV1-4-ETOH-H21-HA3
          55        4      3   0.090    -0.7862432907    -0.1100642759     6.7349227629 # SV1-4-ETOH-H22-HA3
          56        4      3   0.090    -2.3946221321     0.3954631855     7.3772531408 # SV1-4-ETOH-H23-HA3
          57        5      7   0.050    -5.7012179391     3.1082980837     2.8746519008 # SV1-5-ETOH-C1-CT2
          58        5     11  -0.660    -6.0670355781     4.4803628059     2.7838772334 # SV1-5-ETOH-O1-OH1
          59        5      1   0.430    -6.8905215002     4.6026351002     3.2879262919 # SV1-5-ETOH-HO1-H
          60        5      2   0.090    -6.0859708624     2.5645142087     1.9820872457 # SV1-5-ETOH-H11-HA2
          61        5      2   0.090    -6.1411060917     2.6352453788     3.7847437129 # SV1-5-ETOH-H12-HA2
          62        5      8  -0.270    -4.1769409289     3.0344891779     2.9238766906 # SV1-5-ETOH-C2-CT3
          63        5      3   0.090    -3.7954307362     3.5858063988     3.8100566576 # SV1-5-ETOH-H21-HA3
          64        5      3   0.090    -3.7358720990     3.4948818156     2.0127437985 # SV1-5-ETOH-H22-HA3
          65        5      3   0.090    -3.8423120064     1.9759339841     2.9829817647 # SV1-5-ETOH-H23-HA3
          66        6      7   0.050     4.3948240369    -4.7961980486     0.0448599536 # SV1-6-ETOH-C1-CT2
          67        6     11  -0.660     3.6448844503    -3.8673017424     0.8161212084 # SV1-6-ETOH-O1-OH1
          68        6      1   0.430     2.7400017251    -4.1995443668     0.8798496425 # SV1-6-ETOH-HO1-H
          69        6      2   0.090     3.8181950007    -5.1100553881    -0.8572313972 # SV1-6-ETOH-H11-HA2
          70        6      2   0.090     4.6221236402    -5.7027531687     0.6529077224 # SV1-6-ETOH-H12-HA2
          71        6      8  -0.270     5.6867152846    -4.1039267309    -0.3668851944 # SV1-6-ETOH-C2-CT3
          72        6      3   0.090     6.2410038926    -3.7502448303     0.5272117028 # SV1-6-ETOH-H21-HA3
          73        6      3   0.090     5.4609613305    -3.2264734661    -1.0115749567 # SV1-6-ETOH-H22-HA3
          74        6      3   0.090     6.3361897023    -4.7971783947    -0.9381041201 # SV1-6-ETOH-H23-HA3
          75        7      7   0.050     0.6926120015    -6.9281001938    -2.2300555973 # SV1-7-ETOH-C1-CT2
          76        7     11  -0.660     1.8977567504    -7.6451340726    -2.0219566604 # SV1-7-ETOH-O1-OH1
          77        7      1   0.430     1.9552083565    -8.2647520606    -2.7596644431 # SV1-7-ETOH-HO1-H
          78        7      2   0.090    -0.1172748569    -7.6272596789    -2.5479381341 # SV1-7-ETOH-H11-HA2
          79        7      2   0.090     0.8309279054    -6.1586663157    -3.0249618213 # SV1-7-ETOH-H12-HA2
          80        7      8  -0.270     0.3163323597    -6.2612693741    -0.9224910115 # SV1-7-ETOH-C2-CT3
          81        7      3   0.090     1.1026178679    -5.5643127845    -0.5640177758 # SV1-7-ETOH-H21-HA3
          82        7      3   0.090     0.1270596892    -7.0207081042    -0.1326840231 # SV1-7-ETOH-H22-HA3
          83        7      3   0.090    -0.6145441892    -5.6873635878    -1.0760957842 # SV1-7-ETOH-H23-HA3
          84        8      7   0.050    -0.9589682174     5.8762544733     3.9389455109 # SV1-8-ETOH-C1-CT2
          85        8     11  -0.660     0.2112487152     6.4756190540     3.4025688701 # SV1-8-ETOH-O1-OH1
          86        8      1   0.430     0.1680684270     6.4026187660     2.4401777140 # SV1-8-ETOH-HO1-H
          87        8      2   0.090    -1.2232341751     4.9401473216     3.3897978380 # SV1-8-ETOH-H11-HA2
          88        8      2   0.090    -1.8014897977     6.5975991116     3.8488521650 # SV1-8-ETOH-H12-HA2
          89        8      8  -0.270    -0.6693466545     5.5655270607     5.3994265013 # SV1-8-ETOH-C2-CT3
          90        8      3   0.090    -0.2322080722     6.4509092945     5.9100172051 # SV1-8-ETOH-H21-HA3
          91        8      3   0.090     0.0685088222     4.7364276226     5.4726920600 # SV1-8-ETOH-H22-HA3
          92        8      3   0.090    -1.5934264220     5.2660778002     5.9366053358 # SV1-8-ETOH-H23-HA3
          93        9      7   0.050    -6.6311635600    -3.6615644428    -1.1665518894 # SV1-9-ETOH-C1-CT2
          94        9     11  -0.660    -6.3355139005    -4.2623092906     0.0918421899 # SV1-9-ETOH-O1-OH1
          95        9      1   0.430    -6.5918588214    -5.1859065341    -0.0028909869 # SV1-9-ETOH-HO1-H
          96        9      2   0.090    -7.5617713780    -4.1008081141    -1.5990426046 # SV1-9-ETOH-H11-HA2
          97        9      2   0.090    -5.8002899299    -3.8440940762    -1.8871352746 # SV1-9-ETOH-H12-HA2
          98        9      8  -0.270    -6.8066276895    -2.1648439318    -0.9530082247 # SV1-9-ETOH-C2-CT3
          99        9      3   0.090    -5.9247377591    -1.7315829438    -0.4375896847 # SV1-9-ETOH-H21-HA3
         100        9      3   0.090    -7.7065121079    -1.9648071628    -0.3334185022 # SV1-9-ETOH-H22-HA3
         101        9      3   0.090    -6.9433929859    -1.6500196317    -1.9271265525 # SV1-9-ETOH-H23-HA3
         102       10      7   0.050    -3.7102770109    -6.3663215448     1.1134975026 # SV1-10-ETOH-C1-CT2
         103       10     11  -0.660    -2.5333648626    -6.1580987029     0.3538923159 # SV1-10-ETOH-O1-OH1
         104       10      1   0.430    -2.7923917738    -5.7318002427    -0.4644870651 # SV1-10-ETOH-HO1-H
         105       10      2   0.090    -4.2638206290    -7.2280987714     0.6813350434 # SV1-10-ETOH-H11-HA2
         106       10      2   0.090    -4.3536330574    -5.4589077732     1.0909368265 # SV1-10-ETOH-H12-HA2
         107       10      8  -0.270    -3.2675322167    -6.6592150200     2.5355163563 # SV1-10-ETOH-C2-CT3
         108       10      3   0.090    -2.8351308614    -5.7420124483     2.9936426820 # SV1-10-ETOH-H21-HA3
         109       10      3   0.090    -2.4889920667    -7.4526121371     2.5415811656 # SV1-10-ETOH-H22-HA3
         110       10      3   0.090    -4.1296655107    -6.9959548751     3.1485459193 # SV1-10-ETOH-H23-HA3
         111       11      7   0.050     4.9464624274    -1.9017404604    -5.3123964334 # SV1-11-ETOH-C1-CT2
         112       11     11  -0.660     6.2528780248    -1.7555944457    -5.8436544043 # SV1-11-ETOH-O1-OH1
         113       11      1   0.430     6.1471879464    -1.7582586912    -6.8009864204 # SV1-11-ETOH-HO1-H
         114       11      2   0.090     4.4488525006    -2.7993515184    -5.7537121055 # SV1-11-ETOH-H11-HA2
         115       11      2   0.090     4.3389874106    -0.9992272928    -5.5553309861 # SV1-11-ETOH-H12-HA2
         116       11      8  -0.270     5.0740699809    -2.0512237837    -3.8040215642 # SV1-11-ETOH-C2-CT3
         117       11      3   0.090     5.5620806556    -1.1537519369    -3.3671689567 # SV1-11-ETOH-H21-HA3
         118       11      3   0.090     5.6926581942    -2.9418241715    -3.5621999128 # SV1-11-ETOH-H22-HA3
         119       11      3   0.090     4.0706335179    -2.1735372080    -3.3422378884 # SV1-11-ETOH-H23-HA3
         120       12      7   0.050    -4.9298712389     5.7610890899    -2.3449677549 # SV1-12-ETOH-C1-CT2
         121       12     11  -0.660    -5.4838430555     6.1244142174    -1.0878262621 # SV1-12-ETOH-O1-OH1
         122       12      1   0.430    -6.0753659116     5.3987475352    -0.8326378630 # SV1-12-ETOH-HO1-H
         123       12      2   0.090    -5.7381856043     5.5346690796    -3.0803209969 # SV1-12-ETOH-H11-HA2
         124       12      2   0.090    -4.2881676134     4.8533187566    -2.2412424669 # SV1-12-ETOH-H12-HA2
         125       12      8  -0.270    -4.0980853927     6.9256467131    -2.8633356486 # SV1-12-ETOH-C2-CT3
         126       12      3   0.090    -3.1395086134     7.0126792212    -2.3108946899 # SV1-12-ETOH-H21-HA3
         127       12      3   0.090    -4.6471451441     7.8863754513    -2.7740208708 # SV1-12-ETOH-H22-HA3
         128       12      3   0.090    -3.8733281851     6.7703874630    -3.9400231933 # SV1-12-ETOH-H23-HA3
         129       13      7   0.050    -3.4964707591    -3.6894985469     5.9457240984 # SV1-13-ETOH-C1-CT2
         130       13     11  -0.660    -3.5421815749    -2.3323882658     5.5289344433 # SV1-13-ETOH-O1-OH1
         131       13      1   0.430    -4.1942744627    -2.2716343161     4.8184504145 # SV1-13-ETOH-HO1-H
         132       13      2   0.090    -3.7371158498    -4.3562845702     5.0863065336 # SV1-13-ETOH-H11-HA2
         133       13      2   0.090    -4.2476079088    -3.8446288136     6.7529461158 # SV1-13-ETOH-H12-HA2
         134       13      8  -0.270    -2.1011382915    -4.0115795728     6.4676796532 # SV1-13-ETOH-C2-CT3
         135       13      3   0.090    -1.8058875910    -3.3049879676     7.2731800044 # SV1-13-ETOH-H21-HA3
         136       13      3   0.090    -1.3556813016    -3.9406170198     5.6452652930 # SV1-13-ETOH-H22-HA3
         137       13      3   0.090    -2.0874925778    -5.0428700323     6.8811076858 # SV1-13-ETOH-H23-HA3
         138       14      7   0.050     0.8798043220    -4.0784769909    -7.2384666417 # SV1-14-ETOH-C1-CT2
         139       14     11  -0.660     1.9817389837    -4.8247443691    -6.7362004791 # SV1-14-ETOH-O1-OH1
         140       14      1   0.430     1.8822455532    -5.7170073383    -7.0935043093 # SV1-14-ETOH-HO1-H
         141       14      2   0.090     0.0427820145    -4.7610972668    -7.5150110033 # SV1-14-ETOH-H11-HA2
         142       14      2   0.090     1.1963716590    -3.5253623792    -8.1529071866 # SV1-14-ETOH-H12-HA2
         143       14      8  -0.270     0.4156084988    -3.0966608243    -6.1682187274 # SV1-14-ETOH-C2-CT3
         144       14      3   0.090     1.2495784786    -2.4552994185    -5.8193321809 # SV1-14-ETOH-H21-HA3
         145       14      3   0.090     0.0048857373    -3.6379912994    -5.2896860907 # SV1-14-ETOH-H22-HA3
         146       14      3   0.090    -0.3865003899    -2.4400573949    -6.5774971451 # SV1-14-ETOH-H23-HA3
         147       15      7   0.050    -0.8577846917     6.0273092743    -6.0009985901 # SV1-15-ETOH-C1-CT2
         148       15     11  -0.660     0.2960501730     5.2682678996    -5.6547865775 # SV1-15-ETOH-O1-OH1
         149       15      1   0.430     0.5006236382     4.7088287522    -6.4005334705 # SV1-15-ETOH-HO1-H
         150       15      2   0.090    -1.6841759435     5.3460632990    -6.3110160679 # SV1-15-ETOH-H11-HA2
         151       15      2   0.090    -0.6299247018     6.7251784299    -6.8395003912 # SV1-15-ETOH-H12-HA2
         152       15      8  -0.270    -1.2466508081     6.8039398678    -4.7596086949 # SV1-15-ETOH-C2-CT3
         153       15      3   0.090    -0.3981663249     7.4215195461    -4.3958180270 # SV1-15-ETOH-H21-HA3
         154       15      3   0.090    -1.5365998225     6.0981499155    -3.9496203805 # SV1-15-ETOH-H22-HA3
         155       15      3   0.090    -2.1059159635     7.4735644093    -4.9781604727 # SV1-15-ETOH-H23-HA3
         156       16      7   0.050     5.0110171119    -2.3752669540     4.2531301313 # SV1-16-ETOH-C1-CT2
         157       16     11  -0.660     5.4317623362    -1.2485971093     3.4926348154 # SV1-16-ETOH-O1-OH1
         158       16      1   0.430     4.8483005526    -1.2080213437     2.7195246411 # SV1-16-ETOH-HO1-H
         159       16      2   0.090     4.7447403673    -3.2150840271     3.5690494689 # SV1-16-ETOH-H11-HA2
         160       16      2   0.090     4.1162510695    -2.0979878683     4.8558886703 # SV1-16-ETOH-H12-HA2
         161       16      8  -0.270     6.1380059945    -2.8086629983     5.1842996908 # SV1-16-ETOH-C2-CT3
         162       16      3   0.090     6.4578321958    -1.9677072867     5.8357390869 # SV1-16-ETOH-H21-HA3
         163       16      3   0.090     7.0152363518    -3.1478907523     4.5915348596 # SV1-16-ETOH-H22-HA3
         164       16      3   0.090     5.7996758257    -3.6487191178     5.8326060616 # SV1-16-ETOH-H23-HA3
         165       17      7   0.050    -0.3196306866     7.8393212061    -0.6824731742 # SV1-17-ETOH-C1-CT2
         166       17     11  -0.660    -0.6072157603     7.7056806959     0.7012073926 # SV1-17-ETOH-O1-OH1
         167       17      1   0.430    -1.4778075708     8.1111728407     0.7961630622 # SV1-17-ETOH-HO1-H
         168       17      2   0.090    -1.1776467862     7.4710479402    -1.2904706520 # SV1-17-ETOH-H11-HA2
         169       17      2   0.090     0.5780923629     7.2317320618    -0.9443322296 # SV1-17-ETOH-H12-HA2
         170       17      8  -0.270    -0.0742750148     9.3161609813    -0.9500888337 # SV1-17-ETOH-C2-CT3
         171       17      3   0.090     0.8862801020     9.6335801768    -0.4875945254 # SV1-17-ETOH-H21-HA3
         172       17      3   0.090    -0.8810510947     9.9497676633    -0.5230964293 # SV1-17-ETOH-H22-HA3
         173       17      3   0.090    -0.0289603578     9.5242773780    -2.0393611976 # SV1-17-ETOH-H23-HA3
         174       18      7   0.050    -6.2792239325    -1.0811913060    -6.6732199552 # SV1-18-ETOH-C1-CT2
         175       18     11  -0.660    -5.0258078711    -0.8209661521    -7.2817561920 # SV1-18-ETOH-O1-OH1
         176       18      1   0.430    -4.9250986499    -1.4854624023    -7.9751443363 # SV1-18-ETOH-HO1-H
         177       18      2   0.090    -6.7246877913    -2.0095840413    -7.1001921431 # SV1-18-ETOH-H11-HA2
         178       18      2   0.090    -6.9630755499    -0.2292796985    -6.8734547008 # SV1-18-ETOH-H12-HA2
         179       18      8  -0.270    -6.0697548180    -1.2220782538    -5.1714560813 # SV1-18-ETOH-C2-CT3
         180       18      3   0.090    -5.7540612857    -0.2474715253    -4.7417852038 # SV1-18-ETOH-H21-HA3
         181       18      3   0.090    -5.2942612171    -1.9861199271    -4.9511290374 # SV1-18-ETOH-H22-HA3
         182       18      3   0.090    -7.0160304017    -1.5403510496    -4.6890530236 # SV1-18-ETOH-H23-HA3
         183       19      7   0.050     1.8537504799    -2.4125153582     7.4463185764 # SV1-19-ETOH-C1-CT2
         184       19     11  -0.660     1.6344212048    -2.8052787850     8.7990116853 # SV1-19-ETOH-O1-OH1
         185       19      1   0.430     1.4905038227    -3.7499234825     8.7879670229 # SV1-19-ETOH-HO1-H
         186       19      2   0.090     0.9718663581    -2.7121095283     6.8391287011 # SV1-19-ETOH-H11-HA2
         187       19      2   0.090     2.7607524211    -2.9305203829     7.0626604131 # SV1-19-ETOH-H12-HA2
         188       19      8  -0.270     2.0362233880    -0.9062112174     7.4016865819 # SV1-19-ETOH-C2-CT3
         189       19      3   0.090     2.9640008009    -0.6193080816     7.9429331718 # SV1-19-ETOH-H21-HA3
         190       19      3   0.090     1.1676475071    -0.3990561764     7.8771317509 # SV1-19-ETOH-H22-HA3
         191       19      3   0.090     2.1140119750    -0.5676661392     6.3460416231 # SV1-19-ETOH-H23-HA3
         192       20      7   0.050     2.3466700650     0.2928352301    -8.2942526983 # SV1-20-ETOH-C1-CT2
         193       20     11  -0.660     2.3475458523    -0.2010788513    -6.9690841762 # SV1-20-ETOH-O1-OH1
         194       20      1   0.430     2.4159372348    -1.1673092433    -7.0541097145 # SV1-20-ETOH-HO1-H
         195       20      2   0.090     1.4451663130    -0.0810823283    -8.8353637156 # SV1-20-ETOH-H11-HA2
         196       20      2   0.090     3.2559512129    -0.0579607703    -8.8354782793 # SV1-20-ETOH-H12-HA2
         197       20      8  -0.270     2.3311048345     1.8120410443    -8.1917709369 # SV1-20-ETOH-C2-CT3
         198       20      3   0.090     3.2942694856     2.1816275590    -7.7810231088 # SV1-20-ETOH-H21-HA3
         199       20      3   0.090     1.5142199967     2.1398284155    -7.5144402893 # SV1-20-ETOH-H22-HA3
         200       20      3   0.090     2.1682439194     2.2698204890    -9.1875596070 # SV1-20-ETOH-H23-HA3
         201       21      7   0.050     2.9011504096     2.4434119542     7.0575323196 # SV1-21-ETOH-C1-CT2
         202       21     11  -0.660     2.8231620223     2.1353522459     8.4413520299 # SV1-21-ETOH-O1-OH1
         203       21      1   0.430     2.4522155958     1.2526360419     8.5228398766 # SV1-21-ETOH-HO1-H
         204       21      2   0.090     1.9590921932     2.1428637907     6.5402974910 # SV1-21-ETOH-H11-HA2
         205       21      2   0.090     3.7480546299     1.8768032010     6.6083898318 # SV1-21-ETOH-H12-HA2
         206       21      8  -0.270     3.1245012022     3.9429032089     6.9139997078 # SV1-21-ETOH-C2-CT3
         207       21      3   0.090     4.0292094284     4.2610327682     7.4765116186 # SV1-21-ETOH-H21-HA3
         208       21      3   0.090     2.2519251036     4.5024318266     7.3186176318 # SV1-21-ETOH-H22-HA3
         209       21      3   0.090     3.2539179810     4.2171760714     5.8454128608 # SV1-21-ETOH-H23-HA3
         210       22      7   0.050     6.3968294440     2.7586091558     3.6835690661 # SV1-22-ETOH-C1-CT2
         211       22     11  -0.660     7.6077526567     3.1992251646     3.0937108649 # SV1-22-ETOH-O1-OH1
         212       22      1   0.430     7.9811781111     2.4557269627     2.5961943266 # SV1-22-ETOH-HO1-H
         213       22      2   0.090     6.0241657186     1.8357820162     3.1799358124 # SV1-22-ETOH-H11-HA2
         214       22      2   0.090     5.6332576553     3.5621237551     3.5669114863 # SV1-22-ETOH-H12-HA2
         215       22      8  -0.270     6.6759129739     2.5057651970     5.1573337173 # SV1-22-ETOH-C2-CT3
         216       22      3   0.090     7.1210627153     3.4110178937     5.6235597491 # SV1-22-ETOH-H21-HA3
         217       22      3   0.090     7.3998308032     1.6702984791     5.2774392307 # SV1-22-ETOH-H22-HA3
         218       22      3   0.090     5.7418262723     2.2484148490     5.6964947563 # SV1-22-ETOH-H23-HA3
         219       23      7   0.050     6.8295273870     5.1619872801    -2.1385854559 # SV1-23-ETOH-C1-CT2
         220       23     11  -0.660     8.1775561126     4.7399795061    -2.1007994538 # SV1-23-ETOH-O1-OH1
         221       23      1   0.430     8.4625550604     4.6424794927    -3.0153388399 # SV1-23-ETOH-HO1-H
         222       23      2   0.090     6.1742070270     4.3183354510    -2.4586587680 # SV1-23-ETOH-H11-HA2
         223       23      2   0.090     6.7136893695     6.0033875755    -2.8592711295 # SV1-23-ETOH-H12-HA2
         224       23      8  -0.270     6.5090819999     5.6045108024    -0.7227202749 # SV1-23-ETOH-C2-CT3
         225       23      3   0.090     7.1730952643     6.4515977027    -0.4388611794 # SV1-23-ETOH-H21-HA3
         226       23      3   0.090     6.6993316664     4.7651531184    -0.0169430808 # SV1-23-ETOH-H22-HA3
         227       23      3   0.090     5.4523076589     5.9249766594    -0.6296584696 # SV1-23-ETOH-H23-HA3
         228       24      7   0.050    -5.1463289614     4.0074781889    -7.7412938425 # SV1-24-ETOH-C1-CT2
         229       24     11  -0.660    -4.0073232174     3.1863655271    -7.9232521475 # SV1-24-ETOH-O1-OH1
         230       24      1   0.430    -4.3182814145     2.2693817854    -7.9204933742 # SV1-24-ETOH-HO1-H
         231       24      2   0.090    -6.0689890210     3.4160388373    -7.9450327516 # SV1-24-ETOH-H11-HA2
         232       24      2   0.090    -5.1053506289     4.8559821150    -8.4614024499 # SV1-24-ETOH-H12-HA2
         233       24      8  -0.270    -5.1257679294     4.5199497875    -6.3082271308 # SV1-24-ETOH-C2-CT3
         234       24      3   0.090    -4.1505370048     4.9753334403    -6.0449572277 # SV1-24-ETOH-H21-HA3
         235       24      3   0.090    -5.3105991101     3.6792795704    -5.6030744247 # SV1-24-ETOH-H22-HA3
         236       24      3   0.090    -5.9221510213     5.2817472471    -6.1577667063 # SV1-24-ETOH-H23-HA3
         237       25      7   0.050    -7.6188309392    -4.8299893194     3.9000557261 # SV1-25-ETOH-C1-CT2
         238       25     11  -0.660    -7.1368387284    -3.6501036917     3.2789618855 # SV1-25-ETOH-O1-OH1
         239       25      1   0.430    -6.8778605175    -3.8706845799     2.3697301520 # SV1-25-ETOH-HO1-H
         240       25      2   0.090    -7.9282674221    -5.5834432052     3.1394081273 # SV1-25-ETOH-H11-HA2
         241       25      2   0.090    -8.5125776118    -4.5828565930     4.5200690360 # SV1-25-ETOH-H12-HA2
         242       25      8  -0.270    -6.5032206171    -5.3676962987     4.7844216319 # SV1-25-ETOH-C2-CT3
         243       25      3   0.090    -6.2416788374    -4.6196486847     5.5637476634 # SV1-25-ETOH-H21-HA3
         244       25      3   0.090    -5.6003315309    -5.5785464749     4.1730192938 # SV1-25-ETOH-H22-HA3
         245       25      3   0.090    -6.8238387509    -6.3088462893     5.2805417263 # SV1-25-ETOH-H23-HA3
         246       26      7   0.050    -9.6217046027     1.7666237202     0.6269212915 # SV1-26-ETOH-C1-CT2
         247       26     11  -0.660    -9.3971172560     1.1318123205     1.8769287545 # SV1-26-ETOH-O1-OH1
         248       26      1   0.430    -9.6476444991     0.2043598752     1.7494943851 # SV1-26-ETOH-HO1-H
         249       26      2   0.090   -10.5353429034     1.3589237177     0.1360465514 # SV1-26-ETOH-H11-HA2
         250       26      2   0.090    -8.7544035172     1.5822982609    -0.0433327334 # SV1-26-ETOH-H12-HA2
         251       26      8  -0.270    -9.7746579950     3.2544735718     0.8749133819 # SV1-26-ETOH-C2-CT3
         252       26      3   0.090    -9.0227459970     3.6019249687     1.6160455030 # SV1-26-ETOH-H21-HA3
         253       26      3   0.090   -10.7783545489     3.4975106302     1.2736451514 # SV1-26-ETOH-H22-HA3