8
# CELL(abcABC):   37.79452    37.79452    37.79452    90.00000    90.00000    90.00000  Step:           0  Bead:       0 positions{atomic_unit}  cell{atomic_unit}
       N  4.26111e+00  3.82190e+00  6.78380e+00
       H  2.40706e+00  4.06593e+00  6.84241e+00
       H  5.18866e+00  2.60831e+00  7.87243e+00
       C  5.63685e+00  5.20646e+00  5.20646e+00
       O  7.91846e+00  5.00906e+00  5.00906e+00
       N  4.26111e+00  6.78376e+00  3.82184e+00
       H  5.18868e+00  7.87245e+00  2.60833e+00
       H  2.40710e+00  6.84262e+00  4.06612e+00
