LAMMPS data file via write_data, version 5 Jun 2019, timestep = 673

20 atoms
11 atom types
20 bonds
11 bond types
31 angles
14 angle types
42 dihedrals
17 dihedral types

-1.0000000000000000e+01 1.0000000000000000e+01 xlo xhi
-1.0000000000000000e+01 1.0000000000000000e+01 ylo yhi
-1.0000000000000000e+01 1.0000000000000000e+01 zlo zhi

Masses

1 1.008
2 1.008
3 1.008
4 1.008
5 12.011
6 12.011
7 12.011
8 14.007
9 15.999
10 15.999
11 15.999

Pair Coeffs # lj/charmm/coul/long

1 0.046 0.400014 0.046 0.400014
2 0.024 2.38761 0.024 2.38761
3 0.03 2.42004 0.03 2.42004
4 0.046 0.400014 0.046 0.400014
5 0.11 3.56359 0.11 3.56359
6 0.07 3.55005 0.07 3.55005
7 0.078 3.63487 0.01 3.38542
8 0.2 3.29633 0.2 2.76179
9 0.12 3.02906 0.12 2.49452
10 0.1521 3.15378 0.1521 3.15378
11 0.1521 3.15057 0.1521 3.15057

Bond Coeffs # harmonic

1 305 1.375
2 305 1.414
3 250 1.49
4 322 1.111
5 340 1.08
6 450 0.9572
7 370 1.345
8 440 0.997
9 620 1.23
10 334.3 1.411
11 545 0.96

Angle Coeffs # charmm

1 40 120 35 2.4162
2 50 120 0 0
3 34 123 0 0
4 34 117 0 0
5 65 108 0 0
6 33 109.5 30 2.163
7 35.5 108.4 5.4 1.802
8 30 120 22 2.1525
9 55 104.52 0 0
10 80 116.5 0 0
11 40 120 35 2.4162
12 80 121 0 0
13 80 122.5 0 0
14 45.2 120 0 0

Dihedral Coeffs # charmm

1 1.2 2 180 1
2 1 3 180 0
3 3.1 2 180 0.5
4 3.1 2 180 1
5 2.5 2 180 1
6 2.5 2 180 1
7 0.5 2 180 1
8 0.99 2 180 1
9 4.2 2 180 1
10 2.4 2 180 1
11 4.2 2 180 1
12 0 3 0 1
13 0 3 180 1
14 2.5 2 180 1
15 2.5 2 180 1
16 3.1 2 180 1
17 4.2 2 180 1

Atoms # full

1 1 7 -2.7000000000000002e-01 -1.8745391943884107e+00 -3.0457224855502494e+00 -9.1050289465628531e-01 0 0 0
2 1 2 8.9999999999999997e-02 -1.6928623705912438e+00 -4.1089501958881147e+00 -6.3964299653725210e-01 0 0 0
3 1 2 8.9999999999999997e-02 -1.8550694568742432e+00 -2.9510189035904495e+00 -2.0164191731155676e+00 0 0 0
4 1 2 8.9999999999999997e-02 -2.8728967044732192e+00 -2.7470069829230166e+00 -5.2755942474636386e-01 0 0 0
5 1 5 5.2000000000000002e-01 -8.1930028280469502e-01 -2.2033471955152564e+00 -3.0297813435623983e-01 0 0 0
7 1 8 -4.6999999999999997e-01 -9.1692945648223112e-01 -8.8968671071151340e-01 -5.5985482606706971e-01 0 0 0
8 1 1 3.3000000000000002e-01 -1.6751158344195900e+00 -5.9627020443683521e-01 -1.1220487093444582e+00 0 0 0
9 1 6 1.4000000000000001e-01 -8.2818960855642249e-02 1.7444947197056535e-01 -1.2258089038424659e-01 0 0 0
10 1 6 -1.1500000000000000e-01 -6.1828045519659625e-01 1.4667612258222058e+00 -2.5247298398276635e-01 0 0 0
11 1 3 1.1500000000000000e-01 -1.6032996146280258e+00 1.6003916836918843e+00 -6.7212636193021935e-01 0 0 0
6 1 9 -5.2000000000000002e-01 1.4056948874050259e-02 -2.7077343006518477e+00 4.3528342613715354e-01 0 0 0
17 1 3 1.1500000000000000e-01 1.6283801295216387e+00 -9.6085208544578560e-01 5.5110832305657265e-01 0 0 0
13 1 3 1.1500000000000000e-01 -2.9835819034207589e-01 3.5808269334223883e+00 6.3517300285040934e-02 0 0 0
12 1 6 -1.1500000000000000e-01 1.1460207786057007e-01 2.5877664757489756e+00 1.6444878081160760e-01 0 0 0
14 1 6 -1.1500000000000000e-01 1.9291118971211674e+00 1.1402949191938299e+00 8.5822998498205239e-01 0 0 0
15 1 3 1.1500000000000000e-01 2.9100405941721763e+00 1.0025698004620416e+00 1.2870646380676347e+00 0 0 0
16 1 6 -1.1500000000000000e-01 1.1928099588542569e+00 1.9767076769826992e-02 4.4027413185331210e-01 0 0 0
18 1 6 1.1000000000000000e-01 1.3869695075077664e+00 2.4226319397080047e+00 7.1871806393592286e-01 0 0 0
19 1 10 -5.4000000000000004e-01 2.1142760970434651e+00 3.5528479991076121e+00 1.1357668419611378e+00 0 0 0
20 1 1 4.2999999999999999e-01 2.9458513094008851e+00 3.2450054574157265e+00 1.4999377663300271e+00 0 0 0

Velocities

1 0.0000000000000000e+00 0.0000000000000000e+00 0.0000000000000000e+00
2 0.0000000000000000e+00 0.0000000000000000e+00 0.0000000000000000e+00
3 0.0000000000000000e+00 0.0000000000000000e+00 0.0000000000000000e+00
4 0.0000000000000000e+00 0.0000000000000000e+00 0.0000000000000000e+00
5 0.0000000000000000e+00 0.0000000000000000e+00 0.0000000000000000e+00
7 0.0000000000000000e+00 0.0000000000000000e+00 0.0000000000000000e+00
8 0.0000000000000000e+00 0.0000000000000000e+00 0.0000000000000000e+00
9 0.0000000000000000e+00 0.0000000000000000e+00 0.0000000000000000e+00
10 0.0000000000000000e+00 0.0000000000000000e+00 0.0000000000000000e+00
11 0.0000000000000000e+00 0.0000000000000000e+00 0.0000000000000000e+00
6 0.0000000000000000e+00 0.0000000000000000e+00 0.0000000000000000e+00
17 0.0000000000000000e+00 0.0000000000000000e+00 0.0000000000000000e+00
13 0.0000000000000000e+00 0.0000000000000000e+00 0.0000000000000000e+00
12 0.0000000000000000e+00 0.0000000000000000e+00 0.0000000000000000e+00
14 0.0000000000000000e+00 0.0000000000000000e+00 0.0000000000000000e+00
15 0.0000000000000000e+00 0.0000000000000000e+00 0.0000000000000000e+00
16 0.0000000000000000e+00 0.0000000000000000e+00 0.0000000000000000e+00
18 0.0000000000000000e+00 0.0000000000000000e+00 0.0000000000000000e+00
19 0.0000000000000000e+00 0.0000000000000000e+00 0.0000000000000000e+00
20 0.0000000000000000e+00 0.0000000000000000e+00 0.0000000000000000e+00

Bonds

1 4 1 2
2 4 1 3
3 4 1 4
4 3 1 5
5 9 5 6
6 7 5 7
7 8 7 8
8 2 7 9
9 1 9 10
10 1 9 16
11 5 10 11
12 1 10 12
13 5 12 13
14 1 12 18
15 5 14 15
16 1 14 16
17 1 14 18
18 5 16 17
19 10 18 19
20 11 19 20

Angles

1 7 2 1 3
2 7 2 1 4
3 6 2 1 5
4 7 3 1 4
5 6 3 1 5
6 6 4 1 5
7 12 1 5 6
8 10 1 5 7
9 13 6 5 7
10 3 5 7 8
11 2 5 7 9
12 4 8 7 9
13 11 7 9 10
14 11 7 9 16
15 1 10 9 16
16 8 9 10 11
17 1 9 10 12
18 8 11 10 12
19 8 10 12 13
20 1 10 12 18
21 8 13 12 18
22 8 15 14 16
23 8 15 14 18
24 1 16 14 18
25 1 9 16 14
26 8 9 16 17
27 8 14 16 17
28 1 12 18 14
29 14 12 18 19
30 14 14 18 19
31 5 18 19 20

Dihedrals

1 13 2 1 5 6
2 12 2 1 5 7
3 13 3 1 5 6
4 12 3 1 5 7
5 13 4 1 5 6
6 12 4 1 5 7
7 6 1 5 7 8
8 5 1 5 7 9
9 15 6 5 7 8
10 14 6 5 7 9
11 1 5 7 9 10
12 2 5 7 9 10
13 1 5 7 9 16
14 2 5 7 9 16
15 7 8 7 9 10
16 7 8 7 9 16
17 11 7 9 10 11
18 4 7 9 10 12
19 4 7 9 16 14
20 11 7 9 16 17
21 3 10 9 16 14
22 9 10 9 16 17
23 9 11 10 9 16
24 3 12 10 9 16
25 9 9 10 12 13
26 3 9 10 12 18
27 10 11 10 12 13
28 9 11 10 12 18
29 3 10 12 18 14
30 16 10 12 18 19
31 9 13 12 18 14
32 17 13 12 18 19
33 10 15 14 16 17
34 17 15 14 18 19
35 16 16 14 18 19
36 9 9 16 14 15
37 3 9 16 14 18
38 9 17 16 14 18
39 9 12 18 14 15
40 3 12 18 14 16
41 8 12 18 19 20
42 8 14 18 19 20
