# Rocksalt NaCl oriented X=[100], Y=[010], Z=[001].

8 atoms
2 atom types

0.00000000 5.64000000 xlo xhi
0.00000000 5.64000000 ylo yhi
0.00000000 5.64000000 zlo zhi

Atoms

1 1 0 0.00000000 0.00000000 0.00000000
2 1 0 2.82000000 2.82000000 0.00000000
3 1 0 0.00000000 2.82000000 2.82000000
4 1 0 2.82000000 0.00000000 2.82000000
5 2 0 2.82000000 0.00000000 0.00000000
6 2 0 0.00000000 2.82000000 0.00000000
7 2 0 0.00000000 0.00000000 2.82000000
8 2 0 2.82000000 2.82000000 2.82000000
