512
# CELL(abcABC):   43.24792    43.24792    43.24792    90.00000    90.00000    90.00000  Step:           0  Bead:       0 positions{atomic_unit}  cell{atomic_unit}
      Cl -7.69619e-02 -7.69619e-02 -7.69619e-02
      Cl  5.32903e+00  5.32903e+00 -7.69619e-02
      Cl -7.69619e-02  5.32903e+00  5.32903e+00
      Cl  5.32903e+00 -7.69619e-02  5.32903e+00
      Na  5.32903e+00 -7.69619e-02 -7.69619e-02
      Na -7.69619e-02  5.32903e+00 -7.69619e-02
      Na -7.69619e-02 -7.69619e-02  5.32903e+00
      Na  5.32903e+00  5.32903e+00  5.32903e+00
      Cl  1.07350e+01 -7.69619e-02 -7.69619e-02
      Cl  1.61410e+01  5.32903e+00 -7.69619e-02
      Cl  1.07350e+01  5.32903e+00  5.32903e+00
      Cl  1.61410e+01 -7.69619e-02  5.32903e+00
      Na  1.61410e+01 -7.69619e-02 -7.69619e-02
      Na  1.07350e+01  5.32903e+00 -7.69619e-02
      Na  1.07350e+01 -7.69619e-02  5.32903e+00
      Na  1.61410e+01  5.32903e+00  5.32903e+00
      Cl  2.15470e+01 -7.69619e-02 -7.69619e-02
      Cl  2.69530e+01  5.32903e+00 -7.69619e-02
      Cl  2.15470e+01  5.32903e+00  5.32903e+00
      Cl  2.69530e+01 -7.69619e-02  5.32903e+00
      Na  2.69530e+01 -7.69619e-02 -7.69619e-02
      Na  2.15470e+01  5.32903e+00 -7.69619e-02
      Na  2.15470e+01 -7.69619e-02  5.32903e+00
      Na  2.69530e+01  5.32903e+00  5.32903e+00
      Cl  3.23589e+01 -7.69619e-02 -7.69619e-02
      Cl  3.77650e+01  5.32903e+00 -7.69619e-02
      Cl  3.23589e+01  5.32903e+00  5.32903e+00
      Cl  3.77650e+01 -7.69619e-02  5.32903e+00
      Na  3.77650e+01 -7.69619e-02 -7.69619e-02
      Na  3.23589e+01  5.32903e+00 -7.69619e-02
      Na  3.23589e+01 -7.69619e-02  5.32903e+00
      Na  3.77650e+01  5.32903e+00  5.32903e+00
      Cl -7.69619e-02  1.07350e+01 -7.69619e-02
      Cl  5.32903e+00  1.61410e+01 -7.69619e-02
      Cl -7.69619e-02  1.61410e+01  5.32903e+00
      Cl  5.32903e+00  1.07350e+01  5.32903e+00
      Na  5.32903e+00  1.07350e+01 -7.69619e-02
      Na -7.69619e-02  1.61410e+01 -7.69619e-02
      Na -7.69619e-02  1.07350e+01  5.32903e+00
      Na  5.32903e+00  1.61410e+01  5.32903e+00
      Cl  1.07350e+01  1.07350e+01 -7.69619e-02
      Cl  1.61410e+01  1.61410e+01 -7.69619e-02
      Cl  1.07350e+01  1.61410e+01  5.32903e+00
      Cl  1.61410e+01  1.07350e+01  5.32903e+00
      Na  1.61410e+01  1.07350e+01 -7.69619e-02
      Na  1.07350e+01  1.61410e+01 -7.69619e-02
      Na  1.07350e+01  1.07350e+01  5.32903e+00
      Na  1.61410e+01  1.61410e+01  5.32903e+00
      Cl  2.15470e+01  1.07350e+01 -7.69619e-02
      Cl  2.69530e+01  1.61410e+01 -7.69619e-02
      Cl  2.15470e+01  1.61410e+01  5.32903e+00
      Cl  2.69530e+01  1.07350e+01  5.32903e+00
      Na  2.69530e+01  1.07350e+01 -7.69619e-02
      Na  2.15470e+01  1.61410e+01 -7.69619e-02
      Na  2.15470e+01  1.07350e+01  5.32903e+00
      Na  2.69530e+01  1.61410e+01  5.32903e+00
      Cl  3.23589e+01  1.07350e+01 -7.69619e-02
      Cl  3.77650e+01  1.61410e+01 -7.69619e-02
      Cl  3.23589e+01  1.61410e+01  5.32903e+00
      Cl  3.77650e+01  1.07350e+01  5.32903e+00
      Na  3.77650e+01  1.07350e+01 -7.69619e-02
      Na  3.23589e+01  1.61410e+01 -7.69619e-02
      Na  3.23589e+01  1.07350e+01  5.32903e+00
      Na  3.77650e+01  1.61410e+01  5.32903e+00
      Cl -7.69619e-02  2.15470e+01 -7.69619e-02
      Cl  5.32903e+00  2.69530e+01 -7.69619e-02
      Cl -7.69619e-02  2.69530e+01  5.32903e+00
      Cl  5.32903e+00  2.15470e+01  5.32903e+00
      Na  5.32903e+00  2.15470e+01 -7.69619e-02
      Na -7.69619e-02  2.69530e+01 -7.69619e-02
      Na -7.69619e-02  2.15470e+01  5.32903e+00
      Na  5.32903e+00  2.69530e+01  5.32903e+00
      Cl  1.07350e+01  2.15470e+01 -7.69619e-02
      Cl  1.61410e+01  2.69530e+01 -7.69619e-02
      Cl  1.07350e+01  2.69530e+01  5.32903e+00
      Cl  1.61410e+01  2.15470e+01  5.32903e+00
      Na  1.61410e+01  2.15470e+01 -7.69619e-02
      Na  1.07350e+01  2.69530e+01 -7.69619e-02
      Na  1.07350e+01  2.15470e+01  5.32903e+00
      Na  1.61410e+01  2.69530e+01  5.32903e+00
      Cl  2.15470e+01  2.15470e+01 -7.69619e-02
      Cl  2.69530e+01  2.69530e+01 -7.69619e-02
      Cl  2.15470e+01  2.69530e+01  5.32903e+00
      Cl  2.69530e+01  2.15470e+01  5.32903e+00
      Na  2.69530e+01  2.15470e+01 -7.69619e-02
      Na  2.15470e+01  2.69530e+01 -7.69619e-02
      Na  2.15470e+01  2.15470e+01  5.32903e+00
      Na  2.69530e+01  2.69530e+01  5.32903e+00
      Cl  3.23589e+01  2.15470e+01 -7.69619e-02
      Cl  3.77650e+01  2.69530e+01 -7.69619e-02
      Cl  3.23589e+01  2.69530e+01  5.32903e+00
      Cl  3.77650e+01  2.15470e+01  5.32903e+00
      Na  3.77650e+01  2.15470e+01 -7.69619e-02
      Na  3.23589e+01  2.69530e+01 -7.69619e-02
      Na  3.23589e+01  2.15470e+01  5.32903e+00
      Na  3.77650e+01  2.69530e+01  5.32903e+00
      Cl -7.69619e-02  3.23589e+01 -7.69619e-02
      Cl  5.32903e+00  3.77650e+01 -7.69619e-02
      Cl -7.69619e-02  3.77650e+01  5.32903e+00
      Cl  5.32903e+00  3.23589e+01  5.32903e+00
      Na  5.32903e+00  3.23589e+01 -7.69619e-02
      Na -7.69619e-02  3.77650e+01 -7.69619e-02
      Na -7.69619e-02  3.23589e+01  5.32903e+00
      Na  5.32903e+00  3.77650e+01  5.32903e+00
      Cl  1.07350e+01  3.23589e+01 -7.69619e-02
      Cl  1.61410e+01  3.77650e+01 -7.69619e-02
      Cl  1.07350e+01  3.77650e+01  5.32903e+00
      Cl  1.61410e+01  3.23589e+01  5.32903e+00
      Na  1.61410e+01  3.23589e+01 -7.69619e-02
      Na  1.07350e+01  3.77650e+01 -7.69619e-02
      Na  1.07350e+01  3.23589e+01  5.32903e+00
      Na  1.61410e+01  3.77650e+01  5.32903e+00
      Cl  2.15470e+01  3.23589e+01 -7.69619e-02
      Cl  2.69530e+01  3.77650e+01 -7.69619e-02
      Cl  2.15470e+01  3.77650e+01  5.32903e+00
      Cl  2.69530e+01  3.23589e+01  5.32903e+00
      Na  2.69530e+01  3.23589e+01 -7.69619e-02
      Na  2.15470e+01  3.77650e+01 -7.69619e-02
      Na  2.15470e+01  3.23589e+01  5.32903e+00
      Na  2.69530e+01  3.77650e+01  5.32903e+00
      Cl  3.23589e+01  3.23589e+01 -7.69619e-02
      Cl  3.77650e+01  3.77650e+01 -7.69619e-02
      Cl  3.23589e+01  3.77650e+01  5.32903e+00
      Cl  3.77650e+01  3.23589e+01  5.32903e+00
      Na  3.77650e+01  3.23589e+01 -7.69619e-02
      Na  3.23589e+01  3.77650e+01 -7.69619e-02
      Na  3.23589e+01  3.23589e+01  5.32903e+00
      Na  3.77650e+01  3.77650e+01  5.32903e+00
      Cl -7.69619e-02 -7.69619e-02  1.07350e+01
      Cl  5.32903e+00  5.32903e+00  1.07350e+01
      Cl -7.69619e-02  5.32903e+00  1.61410e+01
      Cl  5.32903e+00 -7.69619e-02  1.61410e+01
      Na  5.32903e+00 -7.69619e-02  1.07350e+01
      Na -7.69619e-02  5.32903e+00  1.07350e+01
      Na -7.69619e-02 -7.69619e-02  1.61410e+01
      Na  5.32903e+00  5.32903e+00  1.61410e+01
      Cl  1.07350e+01 -7.69619e-02  1.07350e+01
      Cl  1.61410e+01  5.32903e+00  1.07350e+01
      Cl  1.07350e+01  5.32903e+00  1.61410e+01
      Cl  1.61410e+01 -7.69619e-02  1.61410e+01
      Na  1.61410e+01 -7.69619e-02  1.07350e+01
      Na  1.07350e+01  5.32903e+00  1.07350e+01
      Na  1.07350e+01 -7.69619e-02  1.61410e+01
      Na  1.61410e+01  5.32903e+00  1.61410e+01
      Cl  2.15470e+01 -7.69619e-02  1.07350e+01
      Cl  2.69530e+01  5.32903e+00  1.07350e+01
      Cl  2.15470e+01  5.32903e+00  1.61410e+01
      Cl  2.69530e+01 -7.69619e-02  1.61410e+01
      Na  2.69530e+01 -7.69619e-02  1.07350e+01
      Na  2.15470e+01  5.32903e+00  1.07350e+01
      Na  2.15470e+01 -7.69619e-02  1.61410e+01
      Na  2.69530e+01  5.32903e+00  1.61410e+01
      Cl  3.23589e+01 -7.69619e-02  1.07350e+01
      Cl  3.77650e+01  5.32903e+00  1.07350e+01
      Cl  3.23589e+01  5.32903e+00  1.61410e+01
      Cl  3.77650e+01 -7.69619e-02  1.61410e+01
      Na  3.77650e+01 -7.69619e-02  1.07350e+01
      Na  3.23589e+01  5.32903e+00  1.07350e+01
      Na  3.23589e+01 -7.69619e-02  1.61410e+01
      Na  3.77650e+01  5.32903e+00  1.61410e+01
      Cl -7.69619e-02  1.07350e+01  1.07350e+01
      Cl  5.32903e+00  1.61410e+01  1.07350e+01
      Cl -7.69619e-02  1.61410e+01  1.61410e+01
      Cl  5.32903e+00  1.07350e+01  1.61410e+01
      Na  5.32903e+00  1.07350e+01  1.07350e+01
      Na -7.69619e-02  1.61410e+01  1.07350e+01
      Na -7.69619e-02  1.07350e+01  1.61410e+01
      Na  5.32903e+00  1.61410e+01  1.61410e+01
      Cl  1.07350e+01  1.07350e+01  1.07350e+01
      Cl  1.61410e+01  1.61410e+01  1.07350e+01
      Cl  1.07350e+01  1.61410e+01  1.61410e+01
      Cl  1.61410e+01  1.07350e+01  1.61410e+01
      Na  1.61410e+01  1.07350e+01  1.07350e+01
      Na  1.07350e+01  1.61410e+01  1.07350e+01
      Na  1.07350e+01  1.07350e+01  1.61410e+01
      Na  1.61410e+01  1.61410e+01  1.61410e+01
      Cl  2.15470e+01  1.07350e+01  1.07350e+01
      Cl  2.69530e+01  1.61410e+01  1.07350e+01
      Cl  2.15470e+01  1.61410e+01  1.61410e+01
      Cl  2.69530e+01  1.07350e+01  1.61410e+01
      Na  2.69530e+01  1.07350e+01  1.07350e+01
      Na  2.15470e+01  1.61410e+01  1.07350e+01
      Na  2.15470e+01  1.07350e+01  1.61410e+01
      Na  2.69530e+01  1.61410e+01  1.61410e+01
      Cl  3.23589e+01  1.07350e+01  1.07350e+01
      Cl  3.77650e+01  1.61410e+01  1.07350e+01
      Cl  3.23589e+01  1.61410e+01  1.61410e+01
      Cl  3.77650e+01  1.07350e+01  1.61410e+01
      Na  3.77650e+01  1.07350e+01  1.07350e+01
      Na  3.23589e+01  1.61410e+01  1.07350e+01
      Na  3.23589e+01  1.07350e+01  1.61410e+01
      Na  3.77650e+01  1.61410e+01  1.61410e+01
      Cl -7.69619e-02  2.15470e+01  1.07350e+01
      Cl  5.32903e+00  2.69530e+01  1.07350e+01
      Cl -7.69619e-02  2.69530e+01  1.61410e+01
      Cl  5.32903e+00  2.15470e+01  1.61410e+01
      Na  5.32903e+00  2.15470e+01  1.07350e+01
      Na -7.69619e-02  2.69530e+01  1.07350e+01
      Na -7.69619e-02  2.15470e+01  1.61410e+01
      Na  5.32903e+00  2.69530e+01  1.61410e+01
      Cl  1.07350e+01  2.15470e+01  1.07350e+01
      Cl  1.61410e+01  2.69530e+01  1.07350e+01
      Cl  1.07350e+01  2.69530e+01  1.61410e+01
      Cl  1.61410e+01  2.15470e+01  1.61410e+01
      Na  1.61410e+01  2.15470e+01  1.07350e+01
      Na  1.07350e+01  2.69530e+01  1.07350e+01
      Na  1.07350e+01  2.15470e+01  1.61410e+01
      Na  1.61410e+01  2.69530e+01  1.61410e+01
      Cl  2.15470e+01  2.15470e+01  1.07350e+01
      Cl  2.69530e+01  2.69530e+01  1.07350e+01
      Cl  2.15470e+01  2.69530e+01  1.61410e+01
      Cl  2.69530e+01  2.15470e+01  1.61410e+01
      Na  2.69530e+01  2.15470e+01  1.07350e+01
      Na  2.15470e+01  2.69530e+01  1.07350e+01
      Na  2.15470e+01  2.15470e+01  1.61410e+01
      Na  2.69530e+01  2.69530e+01  1.61410e+01
      Cl  3.23589e+01  2.15470e+01  1.07350e+01
      Cl  3.77650e+01  2.69530e+01  1.07350e+01
      Cl  3.23589e+01  2.69530e+01  1.61410e+01
      Cl  3.77650e+01  2.15470e+01  1.61410e+01
      Na  3.77650e+01  2.15470e+01  1.07350e+01
      Na  3.23589e+01  2.69530e+01  1.07350e+01
      Na  3.23589e+01  2.15470e+01  1.61410e+01
      Na  3.77650e+01  2.69530e+01  1.61410e+01
      Cl -7.69619e-02  3.23589e+01  1.07350e+01
      Cl  5.32903e+00  3.77650e+01  1.07350e+01
      Cl -7.69619e-02  3.77650e+01  1.61410e+01
      Cl  5.32903e+00  3.23589e+01  1.61410e+01
      Na  5.32903e+00  3.23589e+01  1.07350e+01
      Na -7.69619e-02  3.77650e+01  1.07350e+01
      Na -7.69619e-02  3.23589e+01  1.61410e+01
      Na  5.32903e+00  3.77650e+01  1.61410e+01
      Cl  1.07350e+01  3.23589e+01  1.07350e+01
      Cl  1.61410e+01  3.77650e+01  1.07350e+01
      Cl  1.07350e+01  3.77650e+01  1.61410e+01
      Cl  1.61410e+01  3.23589e+01  1.61410e+01
      Na  1.61410e+01  3.23589e+01  1.07350e+01
      Na  1.07350e+01  3.77650e+01  1.07350e+01
      Na  1.07350e+01  3.23589e+01  1.61410e+01
      Na  1.61410e+01  3.77650e+01  1.61410e+01
      Cl  2.15470e+01  3.23589e+01  1.07350e+01
      Cl  2.69530e+01  3.77650e+01  1.07350e+01
      Cl  2.15470e+01  3.77650e+01  1.61410e+01
      Cl  2.69530e+01  3.23589e+01  1.61410e+01
      Na  2.69530e+01  3.23589e+01  1.07350e+01
      Na  2.15470e+01  3.77650e+01  1.07350e+01
      Na  2.15470e+01  3.23589e+01  1.61410e+01
      Na  2.69530e+01  3.77650e+01  1.61410e+01
      Cl  3.23589e+01  3.23589e+01  1.07350e+01
      Cl  3.77650e+01  3.77650e+01  1.07350e+01
      Cl  3.23589e+01  3.77650e+01  1.61410e+01
      Cl  3.77650e+01  3.23589e+01  1.61410e+01
      Na  3.77650e+01  3.23589e+01  1.07350e+01
      Na  3.23589e+01  3.77650e+01  1.07350e+01
      Na  3.23589e+01  3.23589e+01  1.61410e+01
      Na  3.77650e+01  3.77650e+01  1.61410e+01
      Cl -7.69619e-02 -7.69619e-02  2.15470e+01
      Cl  5.32903e+00  5.32903e+00  2.15470e+01
      Cl -7.69619e-02  5.32903e+00  2.69530e+01
      Cl  5.32903e+00 -7.69619e-02  2.69530e+01
      Na  5.32903e+00 -7.69619e-02  2.15470e+01
      Na -7.69619e-02  5.32903e+00  2.15470e+01
      Na -7.69619e-02 -7.69619e-02  2.69530e+01
      Na  5.32903e+00  5.32903e+00  2.69530e+01
      Cl  1.07350e+01 -7.69619e-02  2.15470e+01
      Cl  1.61410e+01  5.32903e+00  2.15470e+01
      Cl  1.07350e+01  5.32903e+00  2.69530e+01
      Cl  1.61410e+01 -7.69619e-02  2.69530e+01
      Na  1.61410e+01 -7.69619e-02  2.15470e+01
      Na  1.07350e+01  5.32903e+00  2.15470e+01
      Na  1.07350e+01 -7.69619e-02  2.69530e+01
      Na  1.61410e+01  5.32903e+00  2.69530e+01
      Cl  2.15470e+01 -7.69619e-02  2.15470e+01
      Cl  2.69530e+01  5.32903e+00  2.15470e+01
      Cl  2.15470e+01  5.32903e+00  2.69530e+01
      Cl  2.69530e+01 -7.69619e-02  2.69530e+01
      Na  2.69530e+01 -7.69619e-02  2.15470e+01
      Na  2.15470e+01  5.32903e+00  2.15470e+01
      Na  2.15470e+01 -7.69619e-02  2.69530e+01
      Na  2.69530e+01  5.32903e+00  2.69530e+01
      Cl  3.23589e+01 -7.69619e-02  2.15470e+01
      Cl  3.77650e+01  5.32903e+00  2.15470e+01
      Cl  3.23589e+01  5.32903e+00  2.69530e+01
      Cl  3.77650e+01 -7.69619e-02  2.69530e+01
      Na  3.77650e+01 -7.69619e-02  2.15470e+01
      Na  3.23589e+01  5.32903e+00  2.15470e+01
      Na  3.23589e+01 -7.69619e-02  2.69530e+01
      Na  3.77650e+01  5.32903e+00  2.69530e+01
      Cl -7.69619e-02  1.07350e+01  2.15470e+01
      Cl  5.32903e+00  1.61410e+01  2.15470e+01
      Cl -7.69619e-02  1.61410e+01  2.69530e+01
      Cl  5.32903e+00  1.07350e+01  2.69530e+01
      Na  5.32903e+00  1.07350e+01  2.15470e+01
      Na -7.69619e-02  1.61410e+01  2.15470e+01
      Na -7.69619e-02  1.07350e+01  2.69530e+01
      Na  5.32903e+00  1.61410e+01  2.69530e+01
      Cl  1.07350e+01  1.07350e+01  2.15470e+01
      Cl  1.61410e+01  1.61410e+01  2.15470e+01
      Cl  1.07350e+01  1.61410e+01  2.69530e+01
      Cl  1.61410e+01  1.07350e+01  2.69530e+01
      Na  1.61410e+01  1.07350e+01  2.15470e+01
      Na  1.07350e+01  1.61410e+01  2.15470e+01
      Na  1.07350e+01  1.07350e+01  2.69530e+01
      Na  1.61410e+01  1.61410e+01  2.69530e+01
      Cl  2.15470e+01  1.07350e+01  2.15470e+01
      Cl  2.69530e+01  1.61410e+01  2.15470e+01
      Cl  2.15470e+01  1.61410e+01  2.69530e+01
      Cl  2.69530e+01  1.07350e+01  2.69530e+01
      Na  2.69530e+01  1.07350e+01  2.15470e+01
      Na  2.15470e+01  1.61410e+01  2.15470e+01
      Na  2.15470e+01  1.07350e+01  2.69530e+01
      Na  2.69530e+01  1.61410e+01  2.69530e+01
      Cl  3.23589e+01  1.07350e+01  2.15470e+01
      Cl  3.77650e+01  1.61410e+01  2.15470e+01
      Cl  3.23589e+01  1.61410e+01  2.69530e+01
      Cl  3.77650e+01  1.07350e+01  2.69530e+01
      Na  3.77650e+01  1.07350e+01  2.15470e+01
      Na  3.23589e+01  1.61410e+01  2.15470e+01
      Na  3.23589e+01  1.07350e+01  2.69530e+01
      Na  3.77650e+01  1.61410e+01  2.69530e+01
      Cl -7.69619e-02  2.15470e+01  2.15470e+01
      Cl  5.32903e+00  2.69530e+01  2.15470e+01
      Cl -7.69619e-02  2.69530e+01  2.69530e+01
      Cl  5.32903e+00  2.15470e+01  2.69530e+01
      Na  5.32903e+00  2.15470e+01  2.15470e+01
      Na -7.69619e-02  2.69530e+01  2.15470e+01
      Na -7.69619e-02  2.15470e+01  2.69530e+01
      Na  5.32903e+00  2.69530e+01  2.69530e+01
      Cl  1.07350e+01  2.15470e+01  2.15470e+01
      Cl  1.61410e+01  2.69530e+01  2.15470e+01
      Cl  1.07350e+01  2.69530e+01  2.69530e+01
      Cl  1.61410e+01  2.15470e+01  2.69530e+01
      Na  1.61410e+01  2.15470e+01  2.15470e+01
      Na  1.07350e+01  2.69530e+01  2.15470e+01
      Na  1.07350e+01  2.15470e+01  2.69530e+01
      Na  1.61410e+01  2.69530e+01  2.69530e+01
      Cl  2.15470e+01  2.15470e+01  2.15470e+01
      Cl  2.69530e+01  2.69530e+01  2.15470e+01
      Cl  2.15470e+01  2.69530e+01  2.69530e+01
      Cl  2.69530e+01  2.15470e+01  2.69530e+01
      Na  2.69530e+01  2.15470e+01  2.15470e+01
      Na  2.15470e+01  2.69530e+01  2.15470e+01
      Na  2.15470e+01  2.15470e+01  2.69530e+01
      Na  2.69530e+01  2.69530e+01  2.69530e+01
      Cl  3.23589e+01  2.15470e+01  2.15470e+01
      Cl  3.77650e+01  2.69530e+01  2.15470e+01
      Cl  3.23589e+01  2.69530e+01  2.69530e+01
      Cl  3.77650e+01  2.15470e+01  2.69530e+01
      Na  3.77650e+01  2.15470e+01  2.15470e+01
      Na  3.23589e+01  2.69530e+01  2.15470e+01
      Na  3.23589e+01  2.15470e+01  2.69530e+01
      Na  3.77650e+01  2.69530e+01  2.69530e+01
      Cl -7.69619e-02  3.23589e+01  2.15470e+01
      Cl  5.32903e+00  3.77650e+01  2.15470e+01
      Cl -7.69619e-02  3.77650e+01  2.69530e+01
      Cl  5.32903e+00  3.23589e+01  2.69530e+01
      Na  5.32903e+00  3.23589e+01  2.15470e+01
      Na -7.69619e-02  3.77650e+01  2.15470e+01
      Na -7.69619e-02  3.23589e+01  2.69530e+01
      Na  5.32903e+00  3.77650e+01  2.69530e+01
      Cl  1.07350e+01  3.23589e+01  2.15470e+01
      Cl  1.61410e+01  3.77650e+01  2.15470e+01
      Cl  1.07350e+01  3.77650e+01  2.69530e+01
      Cl  1.61410e+01  3.23589e+01  2.69530e+01
      Na  1.61410e+01  3.23589e+01  2.15470e+01
      Na  1.07350e+01  3.77650e+01  2.15470e+01
      Na  1.07350e+01  3.23589e+01  2.69530e+01
      Na  1.61410e+01  3.77650e+01  2.69530e+01
      Cl  2.15470e+01  3.23589e+01  2.15470e+01
      Cl  2.69530e+01  3.77650e+01  2.15470e+01
      Cl  2.15470e+01  3.77650e+01  2.69530e+01
      Cl  2.69530e+01  3.23589e+01  2.69530e+01
      Na  2.69530e+01  3.23589e+01  2.15470e+01
      Na  2.15470e+01  3.77650e+01  2.15470e+01
      Na  2.15470e+01  3.23589e+01  2.69530e+01
      Na  2.69530e+01  3.77650e+01  2.69530e+01
      Cl  3.23589e+01  3.23589e+01  2.15470e+01
      Cl  3.77650e+01  3.77650e+01  2.15470e+01
      Cl  3.23589e+01  3.77650e+01  2.69530e+01
      Cl  3.77650e+01  3.23589e+01  2.69530e+01
      Na  3.77650e+01  3.23589e+01  2.15470e+01
      Na  3.23589e+01  3.77650e+01  2.15470e+01
      Na  3.23589e+01  3.23589e+01  2.69530e+01
      Na  3.77650e+01  3.77650e+01  2.69530e+01
      Cl -7.69619e-02 -7.69619e-02  3.23589e+01
      Cl  5.32903e+00  5.32903e+00  3.23589e+01
      Cl -7.69619e-02  5.32903e+00  3.77650e+01
      Cl  5.32903e+00 -7.69619e-02  3.77650e+01
      Na  5.32903e+00 -7.69619e-02  3.23589e+01
      Na -7.69619e-02  5.32903e+00  3.23589e+01
      Na -7.69619e-02 -7.69619e-02  3.77650e+01
      Na  5.32903e+00  5.32903e+00  3.77650e+01
      Cl  1.07350e+01 -7.69619e-02  3.23589e+01
      Cl  1.61410e+01  5.32903e+00  3.23589e+01
      Cl  1.07350e+01  5.32903e+00  3.77650e+01
      Cl  1.61410e+01 -7.69619e-02  3.77650e+01
      Na  1.61410e+01 -7.69619e-02  3.23589e+01
      Na  1.07350e+01  5.32903e+00  3.23589e+01
      Na  1.07350e+01 -7.69619e-02  3.77650e+01
      Na  1.61410e+01  5.32903e+00  3.77650e+01
      Cl  2.15470e+01 -7.69619e-02  3.23589e+01
      Cl  2.69530e+01  5.32903e+00  3.23589e+01
      Cl  2.15470e+01  5.32903e+00  3.77650e+01
      Cl  2.69530e+01 -7.69619e-02  3.77650e+01
      Na  2.69530e+01 -7.69619e-02  3.23589e+01
      Na  2.15470e+01  5.32903e+00  3.23589e+01
      Na  2.15470e+01 -7.69619e-02  3.77650e+01
      Na  2.69530e+01  5.32903e+00  3.77650e+01
      Cl  3.23589e+01 -7.69619e-02  3.23589e+01
      Cl  3.77650e+01  5.32903e+00  3.23589e+01
      Cl  3.23589e+01  5.32903e+00  3.77650e+01
      Cl  3.77650e+01 -7.69619e-02  3.77650e+01
      Na  3.77650e+01 -7.69619e-02  3.23589e+01
      Na  3.23589e+01  5.32903e+00  3.23589e+01
      Na  3.23589e+01 -7.69619e-02  3.77650e+01
      Na  3.77650e+01  5.32903e+00  3.77650e+01
      Cl -7.69619e-02  1.07350e+01  3.23589e+01
      Cl  5.32903e+00  1.61410e+01  3.23589e+01
      Cl -7.69619e-02  1.61410e+01  3.77650e+01
      Cl  5.32903e+00  1.07350e+01  3.77650e+01
      Na  5.32903e+00  1.07350e+01  3.23589e+01
      Na -7.69619e-02  1.61410e+01  3.23589e+01
      Na -7.69619e-02  1.07350e+01  3.77650e+01
      Na  5.32903e+00  1.61410e+01  3.77650e+01
      Cl  1.07350e+01  1.07350e+01  3.23589e+01
      Cl  1.61410e+01  1.61410e+01  3.23589e+01
      Cl  1.07350e+01  1.61410e+01  3.77650e+01
      Cl  1.61410e+01  1.07350e+01  3.77650e+01
      Na  1.61410e+01  1.07350e+01  3.23589e+01
      Na  1.07350e+01  1.61410e+01  3.23589e+01
      Na  1.07350e+01  1.07350e+01  3.77650e+01
      Na  1.61410e+01  1.61410e+01  3.77650e+01
      Cl  2.15470e+01  1.07350e+01  3.23589e+01
      Cl  2.69530e+01  1.61410e+01  3.23589e+01
      Cl  2.15470e+01  1.61410e+01  3.77650e+01
      Cl  2.69530e+01  1.07350e+01  3.77650e+01
      Na  2.69530e+01  1.07350e+01  3.23589e+01
      Na  2.15470e+01  1.61410e+01  3.23589e+01
      Na  2.15470e+01  1.07350e+01  3.77650e+01
      Na  2.69530e+01  1.61410e+01  3.77650e+01
      Cl  3.23589e+01  1.07350e+01  3.23589e+01
      Cl  3.77650e+01  1.61410e+01  3.23589e+01
      Cl  3.23589e+01  1.61410e+01  3.77650e+01
      Cl  3.77650e+01  1.07350e+01  3.77650e+01
      Na  3.77650e+01  1.07350e+01  3.23589e+01
      Na  3.23589e+01  1.61410e+01  3.23589e+01
      Na  3.23589e+01  1.07350e+01  3.77650e+01
      Na  3.77650e+01  1.61410e+01  3.77650e+01
      Cl -7.69619e-02  2.15470e+01  3.23589e+01
      Cl  5.32903e+00  2.69530e+01  3.23589e+01
      Cl -7.69619e-02  2.69530e+01  3.77650e+01
      Cl  5.32903e+00  2.15470e+01  3.77650e+01
      Na  5.32903e+00  2.15470e+01  3.23589e+01
      Na -7.69619e-02  2.69530e+01  3.23589e+01
      Na -7.69619e-02  2.15470e+01  3.77650e+01
      Na  5.32903e+00  2.69530e+01  3.77650e+01
      Cl  1.07350e+01  2.15470e+01  3.23589e+01
      Cl  1.61410e+01  2.69530e+01  3.23589e+01
      Cl  1.07350e+01  2.69530e+01  3.77650e+01
      Cl  1.61410e+01  2.15470e+01  3.77650e+01
      Na  1.61410e+01  2.15470e+01  3.23589e+01
      Na  1.07350e+01  2.69530e+01  3.23589e+01
      Na  1.07350e+01  2.15470e+01  3.77650e+01
      Na  1.61410e+01  2.69530e+01  3.77650e+01
      Cl  2.15470e+01  2.15470e+01  3.23589e+01
      Cl  2.69530e+01  2.69530e+01  3.23589e+01
      Cl  2.15470e+01  2.69530e+01  3.77650e+01
      Cl  2.69530e+01  2.15470e+01  3.77650e+01
      Na  2.69530e+01  2.15470e+01  3.23589e+01
      Na  2.15470e+01  2.69530e+01  3.23589e+01
      Na  2.15470e+01  2.15470e+01  3.77650e+01
      Na  2.69530e+01  2.69530e+01  3.77650e+01
      Cl  3.23589e+01  2.15470e+01  3.23589e+01
      Cl  3.77650e+01  2.69530e+01  3.23589e+01
      Cl  3.23589e+01  2.69530e+01  3.77650e+01
      Cl  3.77650e+01  2.15470e+01  3.77650e+01
      Na  3.77650e+01  2.15470e+01  3.23589e+01
      Na  3.23589e+01  2.69530e+01  3.23589e+01
      Na  3.23589e+01  2.15470e+01  3.77650e+01
      Na  3.77650e+01  2.69530e+01  3.77650e+01
      Cl -7.69619e-02  3.23589e+01  3.23589e+01
      Cl  5.32903e+00  3.77650e+01  3.23589e+01
      Cl -7.69619e-02  3.77650e+01  3.77650e+01
      Cl  5.32903e+00  3.23589e+01  3.77650e+01
      Na  5.32903e+00  3.23589e+01  3.23589e+01
      Na -7.69619e-02  3.77650e+01  3.23589e+01
      Na -7.69619e-02  3.23589e+01  3.77650e+01
      Na  5.32903e+00  3.77650e+01  3.77650e+01
      Cl  1.07350e+01  3.23589e+01  3.23589e+01
      Cl  1.61410e+01  3.77650e+01  3.23589e+01
      Cl  1.07350e+01  3.77650e+01  3.77650e+01
      Cl  1.61410e+01  3.23589e+01  3.77650e+01
      Na  1.61410e+01  3.23589e+01  3.23589e+01
      Na  1.07350e+01  3.77650e+01  3.23589e+01
      Na  1.07350e+01  3.23589e+01  3.77650e+01
      Na  1.61410e+01  3.77650e+01  3.77650e+01
      Cl  2.15470e+01  3.23589e+01  3.23589e+01
      Cl  2.69530e+01  3.77650e+01  3.23589e+01
      Cl  2.15470e+01  3.77650e+01  3.77650e+01
      Cl  2.69530e+01  3.23589e+01  3.77650e+01
      Na  2.69530e+01  3.23589e+01  3.23589e+01
      Na  2.15470e+01  3.77650e+01  3.23589e+01
      Na  2.15470e+01  3.23589e+01  3.77650e+01
      Na  2.69530e+01  3.77650e+01  3.77650e+01
      Cl  3.23589e+01  3.23589e+01  3.23589e+01
      Cl  3.77650e+01  3.77650e+01  3.23589e+01
      Cl  3.23589e+01  3.77650e+01  3.77650e+01
      Cl  3.77650e+01  3.23589e+01  3.77650e+01
      Na  3.77650e+01  3.23589e+01  3.23589e+01
      Na  3.23589e+01  3.77650e+01  3.23589e+01
      Na  3.23589e+01  3.23589e+01  3.77650e+01
      Na  3.77650e+01  3.77650e+01  3.77650e+01
512
# CELL(abcABC):   43.24792    43.24792    43.24792    90.00000    90.00000    90.00000  Step:        1000  Bead:       0 positions{atomic_unit}  cell{atomic_unit}
      Cl -7.69619e-02 -7.69619e-02 -7.69619e-02
      Cl  5.32903e+00  5.32903e+00 -7.69619e-02
      Cl -7.69619e-02  5.32903e+00  5.32903e+00
      Cl  5.32903e+00 -7.69619e-02  5.32903e+00
      Na  5.32903e+00 -7.69619e-02 -7.69619e-02
      Na -7.69619e-02  5.32903e+00 -7.69619e-02
      Na -7.69619e-02 -7.69619e-02  5.32903e+00
      Na  5.32903e+00  5.32903e+00  5.32903e+00
      Cl  1.07350e+01 -7.69619e-02 -7.69619e-02
      Cl  1.61410e+01  5.32903e+00 -7.69619e-02
      Cl  1.07350e+01  5.32903e+00  5.32903e+00
      Cl  1.61410e+01 -7.69619e-02  5.32903e+00
      Na  1.61410e+01 -7.69619e-02 -7.69619e-02
      Na  1.07350e+01  5.32903e+00 -7.69619e-02
      Na  1.07350e+01 -7.69619e-02  5.32903e+00
      Na  1.61410e+01  5.32903e+00  5.32903e+00
      Cl  2.15470e+01 -7.69619e-02 -7.69619e-02
      Cl  2.69530e+01  5.32903e+00 -7.69619e-02
      Cl  2.15470e+01  5.32903e+00  5.32903e+00
      Cl  2.69530e+01 -7.69619e-02  5.32903e+00
      Na  2.69530e+01 -7.69619e-02 -7.69619e-02
      Na  2.15470e+01  5.32903e+00 -7.69619e-02
      Na  2.15470e+01 -7.69619e-02  5.32903e+00
      Na  2.69530e+01  5.32903e+00  5.32903e+00
      Cl  3.23589e+01 -7.69619e-02 -7.69619e-02
      Cl  3.77650e+01  5.32903e+00 -7.69619e-02
      Cl  3.23589e+01  5.32903e+00  5.32903e+00
      Cl  3.77650e+01 -7.69619e-02  5.32903e+00
      Na  3.77650e+01 -7.69619e-02 -7.69619e-02
      Na  3.23589e+01  5.32903e+00 -7.69619e-02
      Na  3.23589e+01 -7.69619e-02  5.32903e+00
      Na  3.77650e+01  5.32903e+00  5.32903e+00
      Cl -7.69619e-02  1.07350e+01 -7.69619e-02
      Cl  5.32903e+00  1.61410e+01 -7.69619e-02
      Cl -7.69619e-02  1.61410e+01  5.32903e+00
      Cl  5.32903e+00  1.07350e+01  5.32903e+00
      Na  5.32903e+00  1.07350e+01 -7.69619e-02
      Na -7.69619e-02  1.61410e+01 -7.69619e-02
      Na -7.69619e-02  1.07350e+01  5.32903e+00
      Na  5.32903e+00  1.61410e+01  5.32903e+00
      Cl  1.07350e+01  1.07350e+01 -7.69619e-02
      Cl  1.61410e+01  1.61410e+01 -7.69619e-02
      Cl  1.07350e+01  1.61410e+01  5.32903e+00
      Cl  1.61410e+01  1.07350e+01  5.32903e+00
      Na  1.61410e+01  1.07350e+01 -7.69619e-02
      Na  1.07350e+01  1.61410e+01 -7.69619e-02
      Na  1.07350e+01  1.07350e+01  5.32903e+00
      Na  1.61410e+01  1.61410e+01  5.32903e+00
      Cl  2.15470e+01  1.07350e+01 -7.69619e-02
      Cl  2.69530e+01  1.61410e+01 -7.69619e-02
      Cl  2.15470e+01  1.61410e+01  5.32903e+00
      Cl  2.69530e+01  1.07350e+01  5.32903e+00
      Na  2.69530e+01  1.07350e+01 -7.69619e-02
      Na  2.15470e+01  1.61410e+01 -7.69619e-02
      Na  2.15470e+01  1.07350e+01  5.32903e+00
      Na  2.69530e+01  1.61410e+01  5.32903e+00
      Cl  3.23589e+01  1.07350e+01 -7.69619e-02
      Cl  3.77650e+01  1.61410e+01 -7.69619e-02
      Cl  3.23589e+01  1.61410e+01  5.32903e+00
      Cl  3.77650e+01  1.07350e+01  5.32903e+00
      Na  3.77650e+01  1.07350e+01 -7.69619e-02
      Na  3.23589e+01  1.61410e+01 -7.69619e-02
      Na  3.23589e+01  1.07350e+01  5.32903e+00
      Na  3.77650e+01  1.61410e+01  5.32903e+00
      Cl -7.69619e-02  2.15470e+01 -7.69619e-02
      Cl  5.32903e+00  2.69530e+01 -7.69619e-02
      Cl -7.69619e-02  2.69530e+01  5.32903e+00
      Cl  5.32903e+00  2.15470e+01  5.32903e+00
      Na  5.32903e+00  2.15470e+01 -7.69619e-02
      Na -7.69619e-02  2.69530e+01 -7.69619e-02
      Na -7.69619e-02  2.15470e+01  5.32903e+00
      Na  5.32903e+00  2.69530e+01  5.32903e+00
      Cl  1.07350e+01  2.15470e+01 -7.69619e-02
      Cl  1.61410e+01  2.69530e+01 -7.69619e-02
      Cl  1.07350e+01  2.69530e+01  5.32903e+00
      Cl  1.61410e+01  2.15470e+01  5.32903e+00
      Na  1.61410e+01  2.15470e+01 -7.69619e-02
      Na  1.07350e+01  2.69530e+01 -7.69619e-02
      Na  1.07350e+01  2.15470e+01  5.32903e+00
      Na  1.61410e+01  2.69530e+01  5.32903e+00
      Cl  2.15470e+01  2.15470e+01 -7.69619e-02
      Cl  2.69530e+01  2.69530e+01 -7.69619e-02
      Cl  2.15470e+01  2.69530e+01  5.32903e+00
      Cl  2.69530e+01  2.15470e+01  5.32903e+00
      Na  2.69530e+01  2.15470e+01 -7.69619e-02
      Na  2.15470e+01  2.69530e+01 -7.69619e-02
      Na  2.15470e+01  2.15470e+01  5.32903e+00
      Na  2.69530e+01  2.69530e+01  5.32903e+00
      Cl  3.23589e+01  2.15470e+01 -7.69619e-02
      Cl  3.77650e+01  2.69530e+01 -7.69619e-02
      Cl  3.23589e+01  2.69530e+01  5.32903e+00
      Cl  3.77650e+01  2.15470e+01  5.32903e+00
      Na  3.77650e+01  2.15470e+01 -7.69619e-02
      Na  3.23589e+01  2.69530e+01 -7.69619e-02
      Na  3.23589e+01  2.15470e+01  5.32903e+00
      Na  3.77650e+01  2.69530e+01  5.32903e+00
      Cl -7.69619e-02  3.23589e+01 -7.69619e-02
      Cl  5.32903e+00  3.77650e+01 -7.69619e-02
      Cl -7.69619e-02  3.77650e+01  5.32903e+00
      Cl  5.32903e+00  3.23589e+01  5.32903e+00
      Na  5.32903e+00  3.23589e+01 -7.69619e-02
      Na -7.69619e-02  3.77650e+01 -7.69619e-02
      Na -7.69619e-02  3.23589e+01  5.32903e+00
      Na  5.32903e+00  3.77650e+01  5.32903e+00
      Cl  1.07350e+01  3.23589e+01 -7.69619e-02
      Cl  1.61410e+01  3.77650e+01 -7.69619e-02