

               374  atoms
               256  bonds
               149  angles
                42  dihedrals
                 0  impropers
                 

                11  atom types
                11  bond types
                14  angle types
                17  dihedral types
                 0  improper types

     -8.0000       8.0000 xlo xhi
     -8.0000       8.0000 ylo yhi
     -8.0000       8.0000 zlo zhi

Masses

       1         1.008  # H
       2         1.008  # HA3
       3         1.008  # HP
       4         1.008  # HT, H of water
       5        12.011  # C
       6        12.011  # CA
       7        12.011  # CT3
       8        14.007  # NH1, CM of para
       9        15.999  # O
      10        15.999  # OH1
      11        15.999  # OT, O of water, CM of water

Pair Coeffs

       1 0.04600000000000 0.40001352444501 1 0.04600000000000 0.40001352444501 # H
       2 0.02400000000000 2.38760856461611 1 0.02400000000000 2.38760856461611 # HA3
       3 0.03000000000000 2.42003727795642 1 0.03000000000000 2.42003727795642 # HP
       4 0.04600000000000 0.40001352444501 1 0.04600000000000 0.40001352444501 # HT
       5 0.11000000000000 3.56359487256136 1 0.11000000000000 3.56359487256136 # C
       6 0.07000000000000 3.55005321204562 1 0.07000000000000 3.55005321204562 # CA
       7 0.07800000000000 3.63486677001258 1 0.01000000000000 3.38541512893329 # CT3
       8 0.20000000000000 3.29632525711926 1 0.20000000000000 2.76178602623505 # NH1
       9 0.12000000000000 3.02905564167715 1 0.12000000000000 2.49451641079295 # O
      10 0.15210000000000 3.15378146221680 1 0.15210000000000 3.15378146221680 # OH1
      11 0.15210000000000 3.15057422683150 1 0.15210000000000 3.15057422683150 # OT

Atoms

           1        1      7  -0.270    -1.7527220455    -3.0776312416    -0.8216507612 # HAA1-1-PACP-C14-CT3
           2        1      2   0.090    -1.4627340729    -4.1038871892    -0.5083322738 # HAA1-1-PACP-H141-HA3
           3        1      2   0.090    -1.6436750099    -2.9903871760    -1.9242493467 # HAA1-1-PACP-H142-HA3
           4        1      2   0.090    -2.8181753543    -2.9210231020    -0.5545237440 # HAA1-1-PACP-H143-HA3
           5        1      5   0.520    -0.9087732040    -2.0867228625    -0.1230168532 # HAA1-1-PACP-C15-C
           6        1      9  -0.520    -0.1856520568    -2.4211886577     0.8106925209 # HAA1-1-PACP-O29-O
           7        1      8  -0.470    -0.9255051314    -0.8500968864    -0.6593715200 # HAA1-1-PACP-N21-NH1
           8        1      1   0.330    -1.5714214151    -0.6406186278    -1.3922168696 # HAA1-1-PACP-H211-H
           9        1      6   0.140    -0.0884089627     0.2190563579    -0.2428362638 # HAA1-1-PACP-C22-CA
          10        1      6  -0.115    -0.6268861011     1.5102625066    -0.2628944161 # HAA1-1-PACP-C23-CA
          11        1      3   0.115    -1.6209817582     1.6730524969    -0.6513632535 # HAA1-1-PACP-H231-HP
          12        1      6  -0.115     0.1113002360     2.5847920731     0.2535463203 # HAA1-1-PACP-C24-CA
          13        1      3   0.115    -0.2993507365     3.5824641077     0.2332940188 # HAA1-1-PACP-H241-HP
          14        1      6  -0.115     1.9466266524     1.0965343908     0.7858836680 # HAA1-1-PACP-C26-CA
          15        1      3   0.115     2.9360281569     0.9169713020     1.1842114625 # HAA1-1-PACP-H261-HP
          16        1      6  -0.115     1.2066089439     0.0261921379     0.2704682597 # HAA1-1-PACP-C27-CA
          17        1      3   0.115     1.6428154448    -0.9597494207     0.2773631217 # HAA1-1-PACP-H271-HP
          18        1      6   0.110     1.3812245645     2.3750312606     0.7986021269 # HAA1-1-PACP-C25-CA
          19        1     10  -0.540     2.0811431889     3.4570694977     1.3533432997 # HAA1-1-PACP-O28-OH1
          20        1      1   0.430     3.0136682888     3.2356101371     1.2692262814 # HAA1-1-PACP-H281-H
          21        1     11  -0.834     4.2030570577     2.1562341746    -1.3810328498 # SOLV-1-TIP3-OH2-OT
          22        1      4   0.417     4.1576192610     3.0879900854    -1.6890123461 # SOLV-1-TIP3-H1-HT
          23        1      4   0.417     3.4848438301     1.7500320708    -1.9027115597 # SOLV-1-TIP3-H2-HT
          24        2     11  -0.834    -4.9126749136     0.7340610625     3.9708022785 # SOLV-2-TIP3-OH2-OT
          25        2      4   0.417    -5.0543066528    -0.1674269820     4.3358990509 # SOLV-2-TIP3-H1-HT
          26        2      4   0.417    -4.4259555708     1.1082364733     4.7365778380 # SOLV-2-TIP3-H2-HT
          27        3     11  -0.834     6.4876219073     3.6449799983     0.9305850025 # SOLV-3-TIP3-OH2-OT
          28        3      4   0.417     5.8503374878     3.2879044171     1.5533726346 # SOLV-3-TIP3-H1-HT
          29        3      4   0.417     6.8265689646     4.4231320851     1.4292038134 # SOLV-3-TIP3-H2-HT
          30        4     11  -0.834    -4.1036025408     4.6739511447     2.3978965434 # SOLV-4-TIP3-OH2-OT
          31        4      4   0.417    -4.1808161852     3.7687463831     2.0437072629 # SOLV-4-TIP3-H1-HT
          32        4      4   0.417    -3.1925052200     4.9173094038     2.1042195708 # SOLV-4-TIP3-H2-HT
          33        5     11  -0.834    -6.3916167650    -0.0123725653    -2.9117084694 # SOLV-5-TIP3-OH2-OT
          34        5      4   0.417    -5.8682892210     0.4949557614    -2.2589009040 # SOLV-5-TIP3-H1-HT
          35        5      4   0.417    -7.1909118980    -0.2104162886    -2.3772294677 # SOLV-5-TIP3-H2-HT
          36        6     11  -0.834    -5.5329237888     1.1326809053    -0.3684410670 # SOLV-6-TIP3-OH2-OT
          37        6      4   0.417    -5.6053573085     0.2682110633     0.0651344674 # SOLV-6-TIP3-H1-HT
          38        6      4   0.417    -4.9636348157     1.6355041847     0.2438078914 # SOLV-6-TIP3-H2-HT
          39        7     11  -0.834     3.7880981472    -2.1116781464     2.8320922358 # SOLV-7-TIP3-OH2-OT
          40        7      4   0.417     4.2151221739    -2.9791202504     2.9469366943 # SOLV-7-TIP3-H1-HT
          41        7      4   0.417     3.7608547925    -2.0693083328     1.8560898050 # SOLV-7-TIP3-H2-HT
          42        8     11  -0.834     5.4164885406    -3.9431912411    -1.2146190251 # SOLV-8-TIP3-OH2-OT
          43        8      4   0.417     5.8299664101    -4.4022884020    -0.4445327623 # SOLV-8-TIP3-H1-HT
          44        8      4   0.417     6.2113436798    -3.6982626274    -1.7158051390 # SOLV-8-TIP3-H2-HT
          45        9     11  -0.834    -5.7443200617    -1.7080303897     0.9989853777 # SOLV-9-TIP3-OH2-OT
          46        9      4   0.417    -4.9887519130    -2.1189523359     1.4775274151 # SOLV-9-TIP3-H1-HT
          47        9      4   0.417    -5.5176571498    -1.9661742801     0.0743014305 # SOLV-9-TIP3-H2-HT
          48       10     11  -0.834    -3.6465098292    -4.8140536089     4.3358682796 # SOLV-10-TIP3-OH2-OT
          49       10      4   0.417    -3.8951067133    -4.3214364696     3.5260429936 # SOLV-10-TIP3-H1-HT
          50       10      4   0.417    -4.4480303891    -4.7634351184     4.8922329612 # SOLV-10-TIP3-H2-HT
          51       11     11  -0.834     3.8660755993     4.6831725961    -2.5270721387 # SOLV-11-TIP3-OH2-OT
          52       11      4   0.417     3.3376419673     4.5893624210    -3.3410540995 # SOLV-11-TIP3-H1-HT
          53       11      4   0.417     3.4593167823     5.5140780808    -2.1763436603 # SOLV-11-TIP3-H2-HT
          54       12     11  -0.834    -0.6119835917     2.9480554817     4.7983514136 # SOLV-12-TIP3-OH2-OT
          55       12      4   0.417    -1.5397366122     3.2930438570     4.8212871789 # SOLV-12-TIP3-H1-HT
          56       12      4   0.417    -0.2280856705     3.5310398204     4.1246736663 # SOLV-12-TIP3-H2-HT
          57       13     11  -0.834     6.5448383828    -4.8913914827     0.9706602670 # SOLV-13-TIP3-OH2-OT
          58       13      4   0.417     6.0098127432    -4.6313624892     1.7535929243 # SOLV-13-TIP3-H1-HT
          59       13      4   0.417     7.4435181997    -4.7150305165     1.3071997016 # SOLV-13-TIP3-H2-HT
          60       14     11  -0.834    -3.7371592974    -3.3450383837     2.0145194913 # SOLV-14-TIP3-OH2-OT
          61       14      4   0.417    -3.3573863118    -2.6580104277     2.6157492688 # SOLV-14-TIP3-H1-HT
          62       14      4   0.417    -2.9426007386    -3.6075426176     1.5283182539 # SOLV-14-TIP3-H2-HT
          63       15     11  -0.834    -3.0506660715     4.0986677780     4.8122911035 # SOLV-15-TIP3-OH2-OT
          64       15      4   0.417    -3.5090295991     4.2060685259     3.9517462493 # SOLV-15-TIP3-H1-HT
          65       15      4   0.417    -3.7001119011     4.5559656361     5.3923672211 # SOLV-15-TIP3-H2-HT
          66       16     11  -0.834    -6.7794770823     4.1530089967    -3.8049784023 # SOLV-16-TIP3-OH2-OT
          67       16      4   0.417    -6.7789237944     4.6103524962    -4.6755392594 # SOLV-16-TIP3-H1-HT
          68       16      4   0.417    -6.5883887866     4.9055766381    -3.2143247505 # SOLV-16-TIP3-H2-HT
          69       17     11  -0.834     7.0303878255     5.9045246544     2.3704659671 # SOLV-17-TIP3-OH2-OT
          70       17      4   0.417     6.3284510202     6.1246291697     3.0080300654 # SOLV-17-TIP3-H1-HT
          71       17      4   0.417     7.1514983427     6.7849089724     1.9653778901 # SOLV-17-TIP3-H2-HT
          72       18     11  -0.834     7.6523252529    -4.7522339829     4.3082840808 # SOLV-18-TIP3-OH2-OT
          73       18      4   0.417     6.6835222778    -4.6877892713     4.2617894231 # SOLV-18-TIP3-H1-HT
          74       18      4   0.417     7.9050178193    -3.8754005767     3.9940304660 # SOLV-18-TIP3-H2-HT
          75       19     11  -0.834    -0.3619109230    -7.0643847773     1.6251779089 # SOLV-19-TIP3-OH2-OT
          76       19      4   0.417     0.1434437720    -7.5949596096     2.2688543492 # SOLV-19-TIP3-H1-HT
          77       19      4   0.417    -1.2272772570    -7.0049635872     2.0954268670 # SOLV-19-TIP3-H2-HT
          78       20     11  -0.834     5.3212220254     8.0284025660    -0.8677901280 # SOLV-20-TIP3-OH2-OT
          79       20      4   0.417     5.6631741418     7.1215063002    -1.0128349257 # SOLV-20-TIP3-H1-HT
          80       20      4   0.417     5.8523724318     8.5049106505    -1.5283468484 # SOLV-20-TIP3-H2-HT
          81       21     11  -0.834     6.2695041632     5.2655580333    -1.5270833079 # SOLV-21-TIP3-OH2-OT
          82       21      4   0.417     5.5396220066     4.8755909947    -2.0554718191 # SOLV-21-TIP3-H1-HT
          83       21      4   0.417     6.3554645267     4.6438426723    -0.7715497090 # SOLV-21-TIP3-H2-HT
          84       22     11  -0.834     2.7877460148     1.2716996293    -3.6147596160 # SOLV-22-TIP3-OH2-OT
          85       22      4   0.417     2.1922658925     2.0282871904    -3.7820051797 # SOLV-22-TIP3-H1-HT
          86       22      4   0.417     3.2999270333     1.1727034652    -4.4423569297 # SOLV-22-TIP3-H2-HT
          87       23     11  -0.834     2.8249818553    -0.6030330238    -7.0494750184 # SOLV-23-TIP3-OH2-OT
          88       23      4   0.417     3.4879047586    -0.3243689209    -6.3992361657 # SOLV-23-TIP3-H1-HT
          89       23      4   0.417     3.1272647021    -1.5140998370    -7.2129851310 # SOLV-23-TIP3-H2-HT
          90       24     11  -0.834     6.1100706116     1.1310461551    -2.9521467437 # SOLV-24-TIP3-OH2-OT
          91       24      4   0.417     5.4428612745     1.4692547955    -2.3097098698 # SOLV-24-TIP3-H1-HT
          92       24      4   0.417     6.7307027946     0.7044104621    -2.3280059141 # SOLV-24-TIP3-H2-HT
          93       25     11  -0.834     5.7895446581    -0.6089997542     7.2315366023 # SOLV-25-TIP3-OH2-OT
          94       25      4   0.417     5.5801198434     0.1751592009     7.7618073345 # SOLV-25-TIP3-H1-HT
          95       25      4   0.417     5.3648037075    -0.3744807300     6.3894727366 # SOLV-25-TIP3-H2-HT
          96       26     11  -0.834    -1.4929619811     5.1741865798     1.8261827231 # SOLV-26-TIP3-OH2-OT
          97       26      4   0.417    -1.4767521310     5.3023599482     0.8469342216 # SOLV-26-TIP3-H1-HT
          98       26      4   0.417    -0.8241971122     5.8102524623     2.1216396674 # SOLV-26-TIP3-H2-HT
          99       27     11  -0.834    -1.4194631988     0.9056837389     2.9155157310 # SOLV-27-TIP3-OH2-OT
         100       27      4   0.417    -0.7167347125     0.7681578086     2.2678830060 # SOLV-27-TIP3-H1-HT
         101       27      4   0.417    -0.9872372929     1.4893988962     3.5668694388 # SOLV-27-TIP3-H2-HT
         102       28     11  -0.834     4.4781851664     6.1702969133     3.8626164087 # SOLV-28-TIP3-OH2-OT
         103       28      4   0.417     4.5320580343     6.4247980513     4.8107473440 # SOLV-28-TIP3-H1-HT
         104       28      4   0.417     4.1568762973     5.2462990362     3.9494902059 # SOLV-28-TIP3-H2-HT
         105       29     11  -0.834    -1.6171462137     5.1155893552     6.9878089896 # SOLV-29-TIP3-OH2-OT
         106       29      4   0.417    -1.8525948986     5.9963893466     6.6170535816 # SOLV-29-TIP3-H1-HT
         107       29      4   0.417    -1.9319062004     4.5570757818     6.2447316857 # SOLV-29-TIP3-H2-HT
         108       30     11  -0.834     4.8803706001     0.4102529360    -5.2958853125 # SOLV-30-TIP3-OH2-OT
         109       30      4   0.417     5.2719048771     0.8146525347    -4.4890826478 # SOLV-30-TIP3-H1-HT
         110       30      4   0.417     5.3320553916     0.9494876324    -5.9897363195 # SOLV-30-TIP3-H2-HT
         111       31     11  -0.834    -3.9725357160     1.6685727655     6.3542361370 # SOLV-31-TIP3-OH2-OT
         112       31      4   0.417    -3.6384302992     2.3200356236     7.0033388993 # SOLV-31-TIP3-H1-HT
         113       31      4   0.417    -4.8561316762     1.4503376712     6.7261490747 # SOLV-31-TIP3-H2-HT
         114       32     11  -0.834     2.9026089658     6.9917674832    -1.7495604299 # SOLV-32-TIP3-OH2-OT
         115       32      4   0.417     3.5497675980     7.3924600524    -1.1310477872 # SOLV-32-TIP3-H1-HT
         116       32      4   0.417     2.3230537525     7.7419686195    -1.9555950558 # SOLV-32-TIP3-H2-HT
         117       33     11  -0.834    -3.0840092402     0.6971193615    -3.8057330001 # SOLV-33-TIP3-OH2-OT
         118       33      4   0.417    -3.7153631001     1.4441088859    -3.9518183462 # SOLV-33-TIP3-H1-HT
         119       33      4   0.417    -3.6633186877     0.0122655563    -3.4577210933 # SOLV-33-TIP3-H2-HT
         120       34     11  -0.834    -6.9752055162     3.5921960002     6.3651584561 # SOLV-34-TIP3-OH2-OT
         121       34      4   0.417    -7.6911383279     3.5498465998     5.7010153104 # SOLV-34-TIP3-H1-HT
         122       34      4   0.417    -6.8762271411     2.6511483899     6.6089864777 # SOLV-34-TIP3-H2-HT
         123       35     11  -0.834    -5.9457838899     6.7266031323     1.7311269684 # SOLV-35-TIP3-OH2-OT
         124       35      4   0.417    -5.3405261545     6.0154477844     2.0262773432 # SOLV-35-TIP3-H1-HT
         125       35      4   0.417    -6.7713378417     6.4330680598     2.1415153259 # SOLV-35-TIP3-H2-HT
         126       36     11  -0.834     1.6801082613     5.9244193793     6.0560314817 # SOLV-36-TIP3-OH2-OT
         127       36      4   0.417     2.5073981851     6.4392614708     6.0344681369 # SOLV-36-TIP3-H1-HT
         128       36      4   0.417     1.3158592281     6.2132634096     6.9093359587 # SOLV-36-TIP3-H2-HT
         129       37     11  -0.834    -4.8217084762     5.0715549007     6.5956145449 # SOLV-37-TIP3-OH2-OT
         130       37      4   0.417    -4.5912721740     5.1000211407     7.5337387432 # SOLV-37-TIP3-H1-HT
         131       37      4   0.417    -5.6145507174     4.4770365318     6.5470675089 # SOLV-37-TIP3-H2-HT
         132       38     11  -0.834    -2.5957799558    -6.9885490559     3.2055887710 # SOLV-38-TIP3-OH2-OT
         133       38      4   0.417    -3.3085755247    -6.9964195309     2.5411587844 # SOLV-38-TIP3-H1-HT
         134       38      4   0.417    -2.8912197048    -6.2255797361     3.7401135616 # SOLV-38-TIP3-H2-HT
         135       39     11  -0.834     2.6107421334    -6.7662983740     6.8317851171 # SOLV-39-TIP3-OH2-OT
         136       39      4   0.417     2.6851847532    -7.2656218096     7.6771383616 # SOLV-39-TIP3-H1-HT
         137       39      4   0.417     1.6471947048    -6.8537906411     6.6900511264 # SOLV-39-TIP3-H2-HT
         138       40     11  -0.834     5.5030538611    -3.3813936163     6.6861198175 # SOLV-40-TIP3-OH2-OT
         139       40      4   0.417     5.0835573783    -3.4677610470     7.5745152116 # SOLV-40-TIP3-H1-HT
         140       40      4   0.417     5.8258255849    -2.4626403933     6.7670731478 # SOLV-40-TIP3-H2-HT
         141       41     11  -0.834     6.1950285307     2.0520513297    -7.0347006393 # SOLV-41-TIP3-OH2-OT
         142       41      4   0.417     5.9901163200     2.6016440676    -7.8322031377 # SOLV-41-TIP3-H1-HT
         143       41      4   0.417     6.4739102421     2.7167153287    -6.3816947106 # SOLV-41-TIP3-H2-HT
         144       42     11  -0.834     2.0056784255    -4.7978347929    -6.0670950852 # SOLV-42-TIP3-OH2-OT
         145       42      4   0.417     1.4345310728    -4.9115088377    -5.2902422210 # SOLV-42-TIP3-H1-HT
         146       42      4   0.417     1.3350779848    -4.5381109318    -6.7377093854 # SOLV-42-TIP3-H2-HT
         147       43     11  -0.834    -2.4496326786    -1.5430644581     3.5582472189 # SOLV-43-TIP3-OH2-OT
         148       43      4   0.417    -2.6821221819    -1.2756236123     4.4687497669 # SOLV-43-TIP3-H1-HT
         149       43      4   0.417    -2.3094934530    -0.6792970724     3.1194211723 # SOLV-43-TIP3-H2-HT
         150       44     11  -0.834     3.2334463060    -1.0616335673    -2.2536959963 # SOLV-44-TIP3-OH2-OT
         151       44      4   0.417     2.9738228236    -0.2861762688    -2.7990929673 # SOLV-44-TIP3-H1-HT
         152       44      4   0.417     3.7787275004    -1.5810981383    -2.8787197768 # SOLV-44-TIP3-H2-HT
         153       45     11  -0.834     4.3070635885    -1.8963298087     0.2163012665 # SOLV-45-TIP3-OH2-OT
         154       45      4   0.417     3.8532795169    -1.4253797449    -0.5134413344 # SOLV-45-TIP3-H1-HT
         155       45      4   0.417     4.6199294418    -2.6980978643    -0.2475233036 # SOLV-45-TIP3-H2-HT
         156       46     11  -0.834    -4.7509144863    -1.7370999801     5.2435911389 # SOLV-46-TIP3-OH2-OT
         157       46      4   0.417    -3.9723175894    -1.4538059245     5.7660127945 # SOLV-46-TIP3-H1-HT
         158       46      4   0.417    -4.9783486710    -2.6016860095     5.6366215688 # SOLV-46-TIP3-H2-HT
         159       47     11  -0.834    -0.1763262146    -4.0055934879    -7.5262882645 # SOLV-47-TIP3-OH2-OT
         160       47      4   0.417    -0.8132938318    -4.3941270161    -6.8936755529 # SOLV-47-TIP3-H1-HT
         161       47      4   0.417    -0.6383978173    -4.2158643280    -8.3602109386 # SOLV-47-TIP3-H2-HT
         162       48     11  -0.834    -7.6048039220    -4.0782184751    -1.2888303486 # SOLV-48-TIP3-OH2-OT
         163       48      4   0.417    -7.2195814836    -4.2021353256    -0.3991507920 # SOLV-48-TIP3-H1-HT
         164       48      4   0.417    -7.2304275649    -4.8579114502    -1.7442854035 # SOLV-48-TIP3-H2-HT
         165       49     11  -0.834    -6.9399755560    -3.8842961676    -4.9569077180 # SOLV-49-TIP3-OH2-OT
         166       49      4   0.417    -6.0708112538    -3.4531238376    -4.9844288739 # SOLV-49-TIP3-H1-HT
         167       49      4   0.417    -7.1967961647    -3.8601217493    -5.8957904607 # SOLV-49-TIP3-H2-HT
         168       50     11  -0.834     3.9293148110    -0.2444291710     4.8132136428 # SOLV-50-TIP3-OH2-OT
         169       50      4   0.417     3.8659533202    -0.9415655968     4.1174656967 # SOLV-50-TIP3-H1-HT
         170       50      4   0.417     3.2404404311    -0.5799761812     5.4226490638 # SOLV-50-TIP3-H2-HT
         171       51     11  -0.834    -5.0952508138    -2.1942669147    -1.5849942361 # SOLV-51-TIP3-OH2-OT
         172       51      4   0.417    -5.6281477668    -1.7925143773    -2.2908097833 # SOLV-51-TIP3-H1-HT
         173       51      4   0.417    -4.9572023514    -3.1143671819    -1.9022407692 # SOLV-51-TIP3-H2-HT
         174       52     11  -0.834    -1.3114526706    -2.3694192525    -4.4992928425 # SOLV-52-TIP3-OH2-OT
         175       52      4   0.417    -0.4520929525    -1.9587544702    -4.4020331740 # SOLV-52-TIP3-H1-HT
         176       52      4   0.417    -1.8065289262    -1.7393708091    -5.0669158646 # SOLV-52-TIP3-H2-HT
         177       53     11  -0.834     4.8621318553    -4.6448860071     3.0277608928 # SOLV-53-TIP3-OH2-OT
         178       53      4   0.417     4.2498033985    -4.6551939749     3.7880549801 # SOLV-53-TIP3-H1-HT
         179       53      4   0.417     4.5474501601    -5.4476416232     2.5489823981 # SOLV-53-TIP3-H2-HT
         180       54     11  -0.834    -2.6860409380    -0.9274854527    -6.5001575827 # SOLV-54-TIP3-OH2-OT
         181       54      4   0.417    -3.3665356323    -1.3252458197    -7.0670850277 # SOLV-54-TIP3-H1-HT
         182       54      4   0.417    -1.8729970812    -0.9779801691    -7.0314820847 # SOLV-54-TIP3-H2-HT
         183       55     11  -0.834    -4.3292842794    -4.7532603464    -2.0665904711 # SOLV-55-TIP3-OH2-OT
         184       55      4   0.417    -4.4924029736    -5.7010582230    -1.8524873674 # SOLV-55-TIP3-H1-HT
         185       55      4   0.417    -3.7034279707    -4.7884148153    -2.7977495540 # SOLV-55-TIP3-H2-HT
         186       56     11  -0.834    -0.3783045702    -2.9643287692     4.5315565395 # SOLV-56-TIP3-OH2-OT
         187       56      4   0.417    -1.0748118608    -2.3896440266     4.1366613730 # SOLV-56-TIP3-H1-HT
         188       56      4   0.417     0.4244466526    -2.6245363960     4.1095316793 # SOLV-56-TIP3-H2-HT
         189       57     11  -0.834     0.5374814602     3.2265761944    -3.7377570922 # SOLV-57-TIP3-OH2-OT
         190       57      4   0.417     0.0321471203     2.6953769045    -4.4012379155 # SOLV-57-TIP3-H1-HT
         191       57      4   0.417    -0.0357244878     3.1182075082    -2.9696612728 # SOLV-57-TIP3-H2-HT
         192       58     11  -0.834     7.1582406334     2.5788468277     4.4185412513 # SOLV-58-TIP3-OH2-OT
         193       58      4   0.417     7.7915849783     2.1160546895     3.8136329228 # SOLV-58-TIP3-H1-HT
         194       58      4   0.417     6.3235557506     2.3785954999     3.9342971050 # SOLV-58-TIP3-H2-HT
         195       59     11  -0.834     4.0472006688    -3.2575402214    -7.0117088744 # SOLV-59-TIP3-OH2-OT
         196       59      4   0.417     3.4442687311    -3.9855579042    -6.7315743349 # SOLV-59-TIP3-H1-HT
         197       59      4   0.417     4.2861025996    -2.8922553831    -6.1478900654 # SOLV-59-TIP3-H2-HT
         198       60     11  -0.834     1.8250824959     3.2885262892     6.4592098205 # SOLV-60-TIP3-OH2-OT
         199       60      4   0.417     0.8820395101     3.1268287531     6.4198605166 # SOLV-60-TIP3-H1-HT
         200       60      4   0.417     1.8414314287     4.2490542229     6.2498059908 # SOLV-60-TIP3-H2-HT
         201       61     11  -0.834     4.7859251270    -2.1148431318    -4.2392701682 # SOLV-61-TIP3-OH2-OT
         202       61      4   0.417     5.7072113921    -2.2979328152    -3.9302742114 # SOLV-61-TIP3-H1-HT
         203       61      4   0.417     4.9422774937    -1.2599817670    -4.6925995220 # SOLV-61-TIP3-H2-HT
         204       62     11  -0.834    -3.8014608587     2.0090568795     1.7775029960 # SOLV-62-TIP3-OH2-OT
         205       62      4   0.417    -2.9097083377     1.6345585398     1.9239987414 # SOLV-62-TIP3-H1-HT
         206       62      4   0.417    -4.2765033394     1.6094978611     2.5400524249 # SOLV-62-TIP3-H2-HT
         207       63     11  -0.834     2.3292505539     4.9302887649    -4.8041793225 # SOLV-63-TIP3-OH2-OT
         208       63      4   0.417     2.0458864178     5.8756520712    -4.7139449860 # SOLV-63-TIP3-H1-HT
         209       63      4   0.417     1.5778245331     4.4171645480    -4.4313176235 # SOLV-63-TIP3-H2-HT
         210       64     11  -0.834    -6.5354872067     1.0990788940     7.2004367426 # SOLV-64-TIP3-OH2-OT
         211       64      4   0.417    -6.5198795061     1.1115735260     8.1876666946 # SOLV-64-TIP3-H1-HT
         212       64      4   0.417    -7.3148388855     0.5459376225     7.0426977324 # SOLV-64-TIP3-H2-HT
         213       65     11  -0.834     4.5866111994     6.5189393922     6.5647182497 # SOLV-65-TIP3-OH2-OT
         214       65      4   0.417     4.5745798464     5.8199912347     7.2365248514 # SOLV-65-TIP3-H1-HT
         215       65      4   0.417     5.2892314934     7.0998885020     6.9134084672 # SOLV-65-TIP3-H2-HT
         216       66     11  -0.834     4.9381757196     1.6503256987     3.0720768255 # SOLV-66-TIP3-OH2-OT
         217       66      4   0.417     4.7093451742     0.9535416219     3.7262914831 # SOLV-66-TIP3-H1-HT
         218       66      4   0.417     5.2747553379     1.1000754587     2.3231306337 # SOLV-66-TIP3-H2-HT
         219       67     11  -0.834    -1.6983288361     5.7027418591    -0.8072625648 # SOLV-67-TIP3-OH2-OT
         220       67      4   0.417    -1.2397748260     6.5606823062    -0.9511888604 # SOLV-67-TIP3-H1-HT
         221       67      4   0.417    -2.5986496588     5.9596434406    -1.0119314999 # SOLV-67-TIP3-H2-HT
         222       68     11  -0.834    -6.2336162773     0.6446702016    -6.1479563450 # SOLV-68-TIP3-OH2-OT
         223       68      4   0.417    -5.4954607308     1.1158557028    -5.7109887542 # SOLV-68-TIP3-H1-HT
         224       68      4   0.417    -6.7883870300     0.5361512875    -5.3559968434 # SOLV-68-TIP3-H2-HT
         225       69     11  -0.834     0.8511689258     7.3252667422     3.5735752469 # SOLV-69-TIP3-OH2-OT
         226       69      4   0.417     0.9397230547     8.0336275107     4.2287703946 # SOLV-69-TIP3-H1-HT
         227       69      4   0.417     0.9553814647     6.5645913267     4.1629498827 # SOLV-69-TIP3-H2-HT
         228       70     11  -0.834     3.6423828468     3.6243791160     4.5168333593 # SOLV-70-TIP3-OH2-OT
         229       70      4   0.417     2.9309505838     3.1591676264     4.9902666864 # SOLV-70-TIP3-H1-HT
         230       70      4   0.417     4.0266897076     2.8858561120     3.9993323513 # SOLV-70-TIP3-H2-HT
         231       71     11  -0.834     6.1990042726     5.4715093686    -6.0842995410 # SOLV-71-TIP3-OH2-OT
         232       71      4   0.417     6.4302627254     4.8064839624    -5.4021279328 # SOLV-71-TIP3-H1-HT
         233       71      4   0.417     5.3021134348     5.1774525309    -6.3392310617 # SOLV-71-TIP3-H2-HT
         234       72     11  -0.834    -5.6736705298    -4.3400930457     6.1000454782 # SOLV-72-TIP3-OH2-OT
         235       72      4   0.417    -6.3647132502    -4.9241941303     5.7331954357 # SOLV-72-TIP3-H1-HT
         236       72      4   0.417    -5.8157623274    -4.4632789648     7.0460085338 # SOLV-72-TIP3-H2-HT
         237       73     11  -0.834     6.6714766464     3.2798911064    -4.5871415914 # SOLV-73-TIP3-OH2-OT
         238       73      4   0.417     6.4998898351     2.4737348884    -4.0517503081 # SOLV-73-TIP3-H1-HT
         239       73      4   0.417     7.5431553353     3.5359468821    -4.2208782668 # SOLV-73-TIP3-H2-HT
         240       74     11  -0.834    -4.9657875262     7.6862347460     5.7092937060 # SOLV-74-TIP3-OH2-OT
         241       74      4   0.417    -5.2170235970     6.7826596336     5.9660324015 # SOLV-74-TIP3-H1-HT
         242       74      4   0.417    -5.8107560825     8.1680578292     5.7849683515 # SOLV-74-TIP3-H2-HT
         243       75     11  -0.834     0.3364203862     6.0190387476    -7.1882264527 # SOLV-75-TIP3-OH2-OT
         244       75      4   0.417    -0.3155880597     5.6597273728    -7.8338245739 # SOLV-75-TIP3-H1-HT
         245       75      4   0.417    -0.1337272931     5.9198607246    -6.3404343181 # SOLV-75-TIP3-H2-HT
         246       76     11  -0.834    -1.2156575241     5.3748563945    -4.8130410728 # SOLV-76-TIP3-OH2-OT
         247       76      4   0.417    -0.6869723138     4.7221384535    -4.3300465268 # SOLV-76-TIP3-H1-HT
         248       76      4   0.417    -1.0004149734     6.1846384729    -4.3321448307 # SOLV-76-TIP3-H2-HT
         249       77     11  -0.834    -4.7501557983     2.5489285977    -4.6538975602 # SOLV-77-TIP3-OH2-OT
         250       77      4   0.417    -5.5418824659     2.9582008012    -4.2433591755 # SOLV-77-TIP3-H1-HT
         251       77      4   0.417    -4.4541761136     3.2887824308    -5.2022840850 # SOLV-77-TIP3-H2-HT
         252       78     11  -0.834     3.2713712907    -4.3846905123     5.5717181517 # SOLV-78-TIP3-OH2-OT
         253       78      4   0.417     4.1381399971    -4.1669156740     5.9825968040 # SOLV-78-TIP3-H1-HT
         254       78      4   0.417     3.0612383296    -5.2128820492     6.0584135743 # SOLV-78-TIP3-H2-HT
         255       79     11  -0.834     4.0181523972    -5.0625153269    -3.2233764835 # SOLV-79-TIP3-OH2-OT
         256       79      4   0.417     4.0399149023    -4.2670990222    -3.7852654531 # SOLV-79-TIP3-H1-HT
         257       79      4   0.417     4.4447369533    -4.7051975722    -2.4091818451 # SOLV-79-TIP3-H2-HT
         258       80     11  -0.834     1.5603381127     7.4635566600    -4.5144235531 # SOLV-80-TIP3-OH2-OT