LAMMPS data file via write_data, version 9 Oct 2020, timestep = 14

16 atoms
4 atom types
14 bonds
3 bond types
18 angles
4 angle types
16 dihedrals
2 dihedral types
2 impropers
1 improper types

0.0 4.686 xlo xhi
0.0 5.572 ylo yhi
0.0 5.572 zlo zhi

Masses

1 1.008
2 12.011
3 14.007
4 15.999

Pair Coeffs

       1 0.04600000000000 0.40001352444501 0.04600000000000 0.40001352444501 # HGP1
       2 0.07000000000000 3.56359487256136 0.07000000000000 3.56359487256136 # CG2O6
       3 0.20000000000000 3.29632525711926 0.20000000000000 3.29632525711926 # NG2S2
       4 0.12000000000000 3.02905564167715 0.12000000000000 2.49451641079295 # OG2D1

Bond Coeffs

           1  430.000   1.3600 # CG2O6 NG2S2
           2  650.000   1.2300 # CG2O6 OG2D1
           3  480.000   1.0000 # NG2S2 HGP1

Angle Coeffs

           1   50.00000  120.00000    0.00000    0.00000 # CG2O6 NG2S2 HGP1
           2   23.00000  120.00000    0.00000    0.00000 # HGP1 NG2S2 HGP1
           3   70.00000  115.00000    0.00000    0.00000 # NG2S2 CG2O6 NG2S2
           4   75.00000  122.50000   50.00000    2.37000 # NG2S2 CG2O6 OG2D1

Dihedral Coeffs

           1       1.5000        2          180 1.00 # NG2S2 CG2O6 NG2S2 HGP1
           2       1.4000        2          180 1.00 # OG2D1 CG2O6 NG2S2 HGP1

Improper Coeffs # harmonic

1 80 0

Atoms # full

1 1 3 -0.69 2.276634137491359 1.9766458099394175 3.585985789512409 0 0 0
2 1 1 0.34 1.2949212432665922 1.9951621386614724 3.5705892150795866 0 0 0
3 1 1 0.34 2.7607546997437105 1.3681745321507304 4.226919232992794 0 0 0
4 1 2 0.6 2.9835658769554447 2.786367971513673 2.7863679715136724 0 0 0
5 1 4 -0.58 4.191348195624145 2.7999701458418964 2.7999701458418964 0 0 0
6 1 3 -0.69 2.276634137491353 3.585985789512408 1.9766458099394175 0 0 0
7 1 1 0.34 2.7607546997437127 4.226919232992796 1.368174532150729 0 0 0
8 1 1 0.34 1.2949212432665957 3.570589215079586 1.995162138661472 0 0 0
9 2 3 -0.69 0.3047119387424857 0.8227240798565753 0.8227240798565754 1 0 0
10 2 1 0.34 1.2874535188254097 0.7360689578006504 0.7360689578006504 1 0 0
11 2 1 0.34 4.569893613564398 1.4727004966141488 1.4727004966141488 0 0 0
12 2 2 0.6 4.214261181338476 0.05729674580577744 0.057296745805777455 0 0 0
13 2 4 -0.58 2.9952653546426986 0.08917885602024832 0.08917885602024811 0 0 0
14 2 3 -0.69 0.20715472346916908 4.816760066482734 4.816760066482734 1 -1 -1
15 2 1 0.34 4.415488616327962 4.190409551148597 4.190409551148597 0 -1 -1
16 2 1 0.34 1.1993886652977557 4.837463535956579 4.837463535956578 1 -1 -1

Velocities

1 0.0013664931362256363 0.0004063470177076442 0.00403089010881678
2 -0.003400566219281281 0.017917732124800086 0.0013243555216599155
3 0.0028080320093834634 -0.011309364588909335 0.02436815222127669
4 0.0010506369796768487 0.005589695943343308 0.005105318942213309
5 -0.0035455737173446644 -0.002417794211228363 -0.005411168487702795
6 0.003428811239384605 -0.003244534332994806 -0.003936209238716117
7 0.014258950481628134 0.02220480356712888 0.02220533544489106
8 -0.006717473802433462 0.0235776330159486 0.006829144636140595
9 0.0006983424305959255 0.0023246449013627707 -0.008315091026229663
10 0.019180794469216386 0.018637287699564204 0.018640966649792267
11 -0.010588352200569312 -0.02466191605983352 0.002921454083866277
12 -0.00735487361644934 -0.0033181282188530278 -0.0006427738984576233
13 0.002498538041159261 0.0020364936480952436 -0.001074175754507481
14 -0.0009527943803156554 -0.00488968883434484 0.0037662262732272066
15 0.013173241942456898 0.022080677957570252 0.010801120541746393
16 -7.574761480932528e-05 -0.014379703056327573 0.02456537135536694

Bonds

1 3 1 2
2 3 1 3
3 1 1 4
4 2 4 5
5 1 4 6
6 3 6 7
7 3 6 8
8 3 9 10
9 3 9 11
10 1 9 12
11 2 12 13
12 1 12 14
13 3 14 15
14 3 14 16

Angles

1 2 2 1 3
2 1 2 1 4
3 1 3 1 4
4 4 1 4 5
5 3 1 4 6
6 4 5 4 6
7 1 4 6 7
8 1 4 6 8
9 2 7 6 8
10 2 10 9 11
11 1 10 9 12
12 1 11 9 12
13 4 9 12 13
14 3 9 12 14
15 4 13 12 14
16 1 12 14 15
17 1 12 14 16
18 2 15 14 16

Dihedrals

1 2 2 1 4 5
2 1 2 1 4 6
3 2 3 1 4 5
4 1 3 1 4 6
5 1 1 4 6 7
6 1 1 4 6 8
7 2 5 4 6 7
8 2 5 4 6 8
9 2 10 9 12 13
10 1 10 9 12 14
11 2 11 9 12 13
12 1 11 9 12 14
13 1 9 12 14 15
14 1 9 12 14 16
15 2 13 12 14 15
16 2 13 12 14 16

Impropers

1 1 4 1 6 5
2 1 12 9 14 13
