LAMMPS data file via write_data, version 5 Jun 2019, timestep = 594

2160 atoms
9 atom types
2160 bonds
10 bond types
3348 angles
13 angle types
4536 dihedrals
17 dihedral types

-8.3760866684749136e-02 2.1687602834728391e+01 xlo xhi
1.7816930012591648e-02 2.7544411457588357e+01 ylo yhi
1.0856129159095207e-01 3.3917762038280870e+01 zlo zhi
-2.4685094855880069e-04 -3.7843548678247743e+00 -1.4925308910405347e-04 xy xz yz

Masses

1 1.008
2 1.008
3 1.008
4 12.011
5 12.011
6 12.011
7 14.007
8 15.999
9 15.999

Pair Coeffs # lj/charmm/coul/long

1 0.046 0.400014 0.046 0.400014
2 0.024 2.38761 0.024 2.38761
3 0.03 2.42004 0.03 2.42004
4 0.11 3.56359 0.11 3.56359
5 0.07 3.55005 0.07 3.55005
6 0.078 3.63487 0.01 3.38542
7 0.2 3.29633 0.2 2.76179
8 0.12 3.02906 0.12 2.49452
9 0.1521 3.15378 0.1521 3.15378

Bond Coeffs # harmonic

1 305 1.375
2 305 1.414
3 250 1.49
4 322 1.111
5 340 1.08
6 370 1.345
7 440 0.997
8 620 1.23
9 334.3 1.411
10 545 0.96

Angle Coeffs # charmm

1 40 120 35 2.4162
2 50 120 0 0
3 34 123 0 0
4 34 117 0 0
5 65 108 0 0
6 33 109.5 30 2.163
7 35.5 108.4 5.4 1.802
8 30 120 22 2.1525
9 80 116.5 0 0
10 40 120 35 2.4162
11 80 121 0 0
12 80 122.5 0 0
13 45.2 120 0 0

Dihedral Coeffs # charmm

1 1.2 2 180 1
2 1 3 180 0
3 3.1 2 180 0.5
4 3.1 2 180 1
5 2.5 2 180 1
6 2.5 2 180 1
7 0.5 2 180 1
8 0.99 2 180 1
9 4.2 2 180 1
10 2.4 2 180 1
11 4.2 2 180 1
12 0 3 0 1
13 0 3 180 1
14 2.5 2 180 1
15 2.5 2 180 1
16 3.1 2 180 1
17 4.2 2 180 1

Atoms # full

1 1 6 -2.7000000000000002e-01 1.9467314894883354e+00 5.5088918505971725e+00 9.5475318570341638e+00 0 0 0
2 1 2 8.9999999999999997e-02 1.9628170204859612e+00 6.6011304131117372e+00 9.3469590334032784e+00 0 0 0
3 1 2 8.9999999999999997e-02 2.9740493453341328e+00 5.1749047414138749e+00 9.7981447092817824e+00 0 0 0
4 1 2 8.9999999999999997e-02 1.2890298644855798e+00 5.3221683060001750e+00 1.0420967570565640e+01 0 0 0
5 1 4 5.2000000000000002e-01 1.4242430252550946e+00 4.7949858476059788e+00 8.3619398491646990e+00 0 0 0
6 1 8 -5.2000000000000002e-01 2.1479893847108422e-01 4.7409623764596738e+00 8.1658068343632308e+00 0 0 0
7 1 7 -4.6999999999999997e-01 2.3274089176167978e+00 4.0785359885073120e+00 7.6851125850451414e+00 0 0 0
8 1 1 3.3000000000000002e-01 3.2705047885822736e+00 4.1020378820768562e+00 8.0186516754765549e+00 0 0 0
9 1 5 1.4000000000000001e-01 2.1697222618360739e+00 3.2834181006550134e+00 6.5231458565374920e+00 0 0 0
10 1 5 -1.1500000000000000e-01 1.0758381103089052e+00 3.3411974603971339e+00 5.6484869196723144e+00 0 0 0
11 1 3 1.1500000000000000e-01 2.7357515644224839e-01 4.0390078909422176e+00 5.8236287448835027e+00 0 0 0
12 1 5 -1.1500000000000000e-01 1.0214628885009573e+00 2.5000601783543157e+00 4.5247124598299422e+00 0 0 0
13 1 3 1.1500000000000000e-01 1.7595352575034728e-01 2.5539155380139000e+00 3.8553957080991665e+00 0 0 0
14 1 5 -1.1500000000000000e-01 3.1645590046108851e+00 1.5514685891655957e+00 5.1311665220664464e+00 0 0 0
15 1 3 1.1500000000000000e-01 3.9735115232178533e+00 8.6461368631862290e-01 4.9430291474982768e+00 0 0 0
16 1 5 -1.1500000000000000e-01 3.2087462795409953e+00 2.3779536157952705e+00 6.2596372138498246e+00 0 0 0
17 1 3 1.1500000000000000e-01 4.0543144837357357e+00 2.3218437355165555e+00 6.9270124244160085e+00 0 0 0
18 1 5 1.1000000000000000e-01 2.0680254941857141e+00 1.6067333171733824e+00 4.2681148257123667e+00 0 0 0
19 1 9 -5.4000000000000004e-01 2.0264577496005618e+00 7.6774640824511153e-01 3.1387225506050753e+00 0 0 0
20 1 1 4.2999999999999999e-01 2.9253849454658134e+00 4.0830797665568241e-01 2.9979106239321207e+00 0 0 0
21 1 6 -2.7000000000000002e-01 3.8813339976876366e+00 3.7022237702124006e+00 1.9393243382562315e+00 0 0 0
22 1 2 8.9999999999999997e-02 3.8652485675356054e+00 2.6099852075428647e+00 2.1398971867148502e+00 0 0 0
23 1 2 8.9999999999999997e-02 2.8540162675828959e+00 4.0362108727704431e+00 1.6887114881519496e+00 0 0 0
24 1 2 8.9999999999999997e-02 4.5390357525088056e+00 3.8889473107897179e+00 1.0658886488783690e+00 0 0 0
25 1 4 5.2000000000000002e-01 4.4038231306646392e+00 4.4161297569836639e+00 3.1249164190007690e+00 0 0 0
26 1 8 -5.2000000000000002e-01 5.6132662944977696e+00 4.4701532192183615e+00 3.3210493539693475e+00 0 0 0
27 1 7 -4.6999999999999997e-01 3.5006564120161072e+00 5.1325796720645629e+00 3.8017436280056494e+00 0 0 0
28 1 1 3.3000000000000002e-01 2.5575608933554004e+00 5.1090777503415428e+00 3.4682045533849770e+00 0 0 0
29 1 5 1.4000000000000001e-01 3.6583433856545922e+00 5.9276974992143510e+00 4.9637103723602793e+00 0 0 0
30 1 5 -1.1500000000000000e-01 4.7522274714222190e+00 5.8699181646629324e+00 5.8383692932869149e+00 0 0 0
31 1 3 1.1500000000000000e-01 5.5544904452564037e+00 5.1721077215829068e+00 5.6632274696803444e+00 0 0 0
32 1 5 -1.1500000000000000e-01 4.8066027133498261e+00 6.7110554414248185e+00 6.9621437491500808e+00 0 0 0
33 1 3 1.1500000000000000e-01 5.6521120718858224e+00 6.6572000815912373e+00 7.6314604973472528e+00 0 0 0
34 1 5 -1.1500000000000000e-01 2.6635065917212315e+00 7.6596470237509662e+00 6.3556896992390364e+00 0 0 0
35 1 3 1.1500000000000000e-01 1.8545540686400910e+00 8.3465019234406448e+00 6.5438270693452152e+00 0 0 0
36 1 5 -1.1500000000000000e-01 2.6193192955530398e+00 6.8331619965320893e+00 5.2272189956621462e+00 0 0 0
37 1 3 1.1500000000000000e-01 1.7737511078006094e+00 6.8892718726398590e+00 4.5598437970732597e+00 0 0 0
38 1 5 1.1000000000000000e-01 3.7600401031783206e+00 7.6043822994069483e+00 7.2187413830227731e+00 0 0 0
39 1 9 -5.4000000000000004e-01 3.8016078342513695e+00 8.4433692169007042e+00 8.3481336792717205e+00 0 0 0
40 1 1 4.2999999999999999e-01 2.9026806784845114e+00 8.8028076465102547e+00 8.4889455805060585e+00 0 0 0
41 1 6 -2.7000000000000002e-01 -3.7800037655517105e-01 1.0096661868887029e+01 7.5741930736347207e+00 0 0 0
42 1 2 8.9999999999999997e-02 -3.9411728694973203e-01 1.1188899593717499e+01 7.7747662302487397e+00 0 0 0
43 1 2 8.9999999999999997e-02 2.0366052685865100e+01 9.7626688402481268e+00 7.3235681568105040e+00 -1 0 0
44 1 2 8.9999999999999997e-02 2.7970982338701877e-01 9.9099526837370764e+00 6.7007602891451326e+00 0 0 0
45 1 4 5.2000000000000002e-01 1.4450094074890762e-01 9.3827471092227768e+00 8.7597819888434216e+00 0 0 0
46 1 8 -5.2000000000000002e-01 1.3539373644832586e+00 9.3287265759718903e+00 8.9559240665011881e+00 0 0 0
47 1 7 -4.6999999999999997e-01 -7.5866213613323796e-01 8.6662889567079215e+00 9.4366124784957961e+00 0 0 0
48 1 1 3.3000000000000002e-01 2.0069610517953020e+01 8.6897940600746608e+00 9.1030663974848451e+00 -1 0 0
49 1 5 1.4000000000000001e-01 -6.0095840936674105e-01 7.8711670128070743e+00 1.0598575901804608e+01 0 0 0
50 1 5 -1.1500000000000000e-01 4.9292020949121285e-01 7.9289342445883131e+00 1.1473241009205225e+01 0 0 0
51 1 3 1.1500000000000000e-01 1.2951729961592469e+00 8.6267500795402636e+00 1.1298100130514685e+01 0 0 0
52 1 5 -1.1500000000000000e-01 5.4731132048486320e-01 7.0877927095303539e+00 1.2597011882375156e+01 0 0 0
53 1 3 1.1500000000000000e-01 1.3928163822172437e+00 7.1416396012363164e+00 1.3266333276426602e+01 0 0 0
54 1 5 -1.1500000000000000e-01 2.0175595740928689e+01 6.1392050136801615e+00 1.1990552447754476e+01 -1 0 0
55 1 3 1.1500000000000000e-01 1.9366653508289041e+01 5.4523447971628585e+00 1.2178690271119539e+01 -1 0 0
56 1 5 -1.1500000000000000e-01 2.0131393277105232e+01 6.9656937255043001e+00 1.0862085459966838e+01 -1 0 0
57 1 3 1.1500000000000000e-01 1.9285829592509575e+01 6.9095922045160059e+00 1.0194705584819861e+01 -1 0 0
58 1 5 1.1000000000000000e-01 -4.9923932468445309e-01 6.1944580025814249e+00 1.2853611118622506e+01 0 0 0
59 1 9 -5.4000000000000004e-01 -4.5765135071602647e-01 5.3554676452084315e+00 1.3982998637177834e+01 0 0 0
60 1 1 4.2999999999999999e-01 -1.3565800373739916e+00 4.9960271373808016e+00 1.4123816302754404e+01 0 0 0
61 1 6 -2.7000000000000002e-01 6.2058191867288253e+00 2.6641048276906695e+01 3.9126631740267390e+00 0 -1 0
62 1 2 8.9999999999999997e-02 6.2219360386334213e+00 2.5548810550631050e+01 3.7120899898138040e+00 0 -1 0
63 1 2 8.9999999999999997e-02 7.2331297471081024e+00 2.6975041312379116e+01 4.1632880649277011e+00 0 -1 0
64 1 2 8.9999999999999997e-02 5.5481089134103856e+00 2.6827757466458308e+01 4.7860959308260922e+00 0 -1 0
65 1 4 5.2000000000000002e-01 5.6833174513918427e+00 2.7354963026629108e+01 2.7270741777801266e+00 0 -1 0
66 1 8 -5.2000000000000002e-01 4.4738815994282470e+00 2.7408983552388310e+01 2.5309322040750919e+00 0 -1 0
67 1 7 -4.6999999999999997e-01 6.5867278982365480e+00 5.4482668933546496e-01 2.0502437545585663e+00 0 0 0
68 1 1 3.3000000000000002e-01 7.5298187178917244e+00 5.2132155773965727e-01 2.3837898062976306e+00 0 0 0
69 1 5 1.4000000000000001e-01 6.4290239754708027e+00 1.3399485957458692e+00 8.8828030448011208e-01 0 0 0
70 1 5 -1.1500000000000000e-01 1.5507905334200758e+00 1.2820321250686892e+00 3.3822815952705461e+01 0 0 -1
71 1 3 1.1500000000000000e-01 4.5328926045106845e+00 5.8436553491857424e-01 1.8875608745133246e-01 0 0 0
72 1 5 -1.1500000000000000e-01 1.4963994055513723e+00 2.1231736568913173e+00 3.2699045079192317e+01 0 0 -1
73 1 3 1.1500000000000000e-01 6.5089434030057669e-01 2.0693267657414189e+00 3.2029723695961628e+01 0 0 -1
74 1 5 -1.1500000000000000e-01 3.6394786867257509e+00 3.0717613530473913e+00 3.3305504506355227e+01 0 0 -1
75 1 3 1.1500000000000000e-01 4.4484209199983225e+00 3.7586215696304772e+00 3.3117366689639489e+01 0 0 -1
76 1 5 -1.1500000000000000e-01 7.4680360332233926e+00 2.2454218942835622e+00 6.2477076120016695e-01 0 0 0
77 1 3 1.1500000000000000e-01 8.3135997054526527e+00 2.3015234216668081e+00 1.2921506247120362e+00 0 0 0
78 1 5 1.1000000000000000e-01 2.5429500486410990e+00 3.0165083589883723e+00 3.2442445848632495e+01 0 0 -1
79 1 9 -5.4000000000000004e-01 2.5013621072227097e+00 3.8554987281975954e+00 3.1313058290017203e+01 0 0 -1
80 1 1 4.2999999999999999e-01 3.4002907459534826e+00 4.2149392188761050e+00 3.1172240694518326e+01 0 0 -1
721 10 6 -2.7000000000000002e-01 6.8527986617796177e-01 5.5088421008949773e+00 2.0817265448104344e+01 0 0 0
722 10 2 8.9999999999999997e-02 7.0136539791788666e-01 6.6010806615825537e+00 2.0616692612394310e+01 0 0 0
723 10 2 8.9999999999999997e-02 1.7125977225331548e+00 5.1748549900039835e+00 2.1067878289587227e+01 0 0 0
724 10 2 8.9999999999999997e-02 2.7578242579239909e-02 5.3221185546175684e+00 2.1690701150196070e+01 0 0 0
725 10 4 5.2000000000000002e-01 1.6279140148508642e-01 4.7949360971620125e+00 1.9631673422157000e+01 0 0 0
726 10 8 -5.2000000000000002e-01 -1.0466526876153013e+00 4.7409126244977982e+00 1.9435540426467565e+01 0 0 0
727 10 7 -4.6999999999999997e-01 1.0659572994423803e+00 4.0784862362848910e+00 1.8954846168596088e+01 0 0 0
728 10 1 3.3000000000000002e-01 2.0090531629500279e+00 4.1019881320572820e+00 1.9288385255851363e+01 0 0 0
729 10 5 1.4000000000000001e-01 9.0827063842298816e-01 3.2833683491365311e+00 1.7792879438336296e+01 0 0 0
730 10 5 -1.1500000000000000e-01 -1.8561351163751527e-01 3.3411477095212732e+00 1.6918220499836874e+01 0 0 0
731 10 3 1.1500000000000000e-01 -9.8787646700178755e-01 4.0389581399757581e+00 1.7093362328691612e+01 0 0 0
732 10 5 -1.1500000000000000e-01 -2.3998873390357112e-01 2.5000104273981241e+00 1.5794446038541993e+01 0 0 0
733 10 3 1.1500000000000000e-01 -1.0854980972545851e+00 2.5538657875795168e+00 1.5125129294926149e+01 0 0 0
734 10 5 -1.1500000000000000e-01 1.9031073809532713e+00 1.5514188386064927e+00 1.6400900101682563e+01 0 0 0
735 10 3 1.1500000000000000e-01 2.7120599015506386e+00 8.6456393497129924e-01 1.6212762732976206e+01 0 0 0
736 10 5 -1.1500000000000000e-01 1.9472946566855687e+00 2.3779038653194036e+00 1.7529370797164070e+01 0 0 0
737 10 3 1.1500000000000000e-01 2.7928628615125941e+00 2.3217939837173880e+00 1.8196746004398776e+01 0 0 0
738 10 5 1.1000000000000000e-01 8.0657387235814504e-01 1.6066835663687882e+00 1.5537848411187595e+01 0 0 0
739 10 9 -5.4000000000000004e-01 7.6500612336989970e-01 7.6769665563712008e-01 1.4408456105195050e+01 0 0 0
740 10 1 4.2999999999999999e-01 1.6639333239910734e+00 4.0825822653147581e-01 1.4267644230966603e+01 0 0 0
741 10 6 -2.7000000000000002e-01 2.6198823775126119e+00 3.7021740187737300e+00 1.3209057905347517e+01 0 0 0
742 10 2 8.9999999999999997e-02 2.6037969441592579e+00 2.6099354570101578e+00 1.3409630774192422e+01 0 0 0
743 10 2 8.9999999999999997e-02 1.5925646443906503e+00 4.0361611217305988e+00 1.2958445074685226e+01 0 0 0
744 10 2 8.9999999999999997e-02 3.2775841295493322e+00 3.8888975596964239e+00 1.2335622234650678e+01 0 0 0
745 10 4 5.2000000000000002e-01 3.1423715055424974e+00 4.4160800051848907e+00 1.4394650034461183e+01 0 0 0
746 10 8 -5.2000000000000002e-01 4.3518146757955343e+00 4.4701034689079187e+00 1.4590782904624442e+01 0 0 0
747 10 7 -4.6999999999999997e-01 2.2392047870828580e+00 5.1325299229184651e+00 1.5071477192847427e+01 0 0 0
748 10 1 3.3000000000000002e-01 1.2961092731159152e+00 5.1090279981490827e+00 1.4737938149361097e+01 0 0 0
749 10 5 1.4000000000000001e-01 2.3968917643061038e+00 5.9276477486344890e+00 1.6233443957207498e+01 0 0 0
750 10 5 -1.1500000000000000e-01 3.4907758481327296e+00 5.8698684130948768e+00 1.7108102875571927e+01 0 0 0
751 10 3 1.1500000000000000e-01 4.2930388227291729e+00 5.1720579709878676e+00 1.6932961052724266e+01 0 0 0
752 10 5 -1.1500000000000000e-01 3.5451510898883973e+00 6.7110056895920867e+00 1.8231877334214833e+01 0 0 0
753 10 3 1.1500000000000000e-01 4.3906604502844457e+00 6.6571503307609392e+00 1.8901194076863973e+01 0 0 0
754 10 5 -1.1500000000000000e-01 1.4020549692754223e+00 7.6595972723015047e+00 1.7625423282144006e+01 0 0 0
755 10 3 1.1500000000000000e-01 5.9310244526796296e-01 8.3464521726105101e+00 1.7813560650861870e+01 0 0 0
756 10 5 -1.1500000000000000e-01 1.3578676721774166e+00 6.8331122450683601e+00 1.6496952575208137e+01 0 0 0
757 10 3 1.1500000000000000e-01 5.1229948569562045e-01 6.8892221217071601e+00 1.5829577382848788e+01 0 0 0
758 10 5 1.1000000000000000e-01 2.4985884805543268e+00 7.6043325487901656e+00 1.8488474962930070e+01 0 0 0
759 10 9 -5.4000000000000004e-01 2.5401562151338499e+00 8.4433194670949003e+00 1.9617867276870278e+01 0 0 0
760 10 1 4.2999999999999999e-01 1.6412290519004356e+00 8.8027578948983205e+00 1.9758679149738821e+01 0 0 0
761 10 6 -2.7000000000000002e-01 -1.6394520008999387e+00 1.0096612118769253e+01 1.8843926662168844e+01 0 0 0
762 10 2 8.9999999999999997e-02 -1.6555689088292405e+00 1.1188849842685702e+01 1.9044499810467727e+01 0 0 0
763 10 2 8.9999999999999997e-02 1.9104601064032032e+01 9.7626190888306823e+00 1.8593301736662543e+01 -1 0 0
764 10 2 8.9999999999999997e-02 -9.8174179957320185e-01 9.9099029322927379e+00 1.7970493870435590e+01 0 0 0
765 10 4 5.2000000000000002e-01 -1.1169506781928411e+00 9.3826973580151805e+00 2.0029515547087367e+01 0 0 0
766 10 8 -5.2000000000000002e-01 9.2485741456471704e-02 9.3286768247213505e+00 2.0225657670422439e+01 0 0 0
767 10 7 -4.6999999999999997e-01 -2.0201137608412987e+00 8.6662392063611691e+00 2.0706346076773652e+01 0 0 0
768 10 1 3.3000000000000002e-01 1.8808158895996147e+01 8.6897443088986925e+00 2.0372799967834329e+01 -1 0 0
769 10 5 1.4000000000000001e-01 -1.8624100324308968e+00 7.8711172617378056e+00 2.1868309481849600e+01 0 0 0
770 10 5 -1.1500000000000000e-01 -7.6853141309571238e-01 7.9288844931752882e+00 2.2742974593444092e+01 0 0 0
771 10 3 1.1500000000000000e-01 3.3721374307941865e-02 8.6267003290083224e+00 2.2567833710352929e+01 0 0 0
772 10 5 -1.1500000000000000e-01 -7.1414030147376528e-01 7.0877429577679107e+00 2.3866745465289334e+01 0 0 0
773 10 3 1.1500000000000000e-01 1.3136475899702615e-01 7.1415898510046993e+00 2.4536066856773228e+01 0 0 0
774 10 5 -1.1500000000000000e-01 1.8914144119210292e+01 6.1391552627026336e+00 2.3260286031923897e+01 -1 0 0
775 10 3 1.1500000000000000e-01 1.8105201885504982e+01 5.4522950460154043e+00 2.3448423850814944e+01 -1 0 0
776 10 5 -1.1500000000000000e-01 1.8869941655512054e+01 6.9656439745912158e+00 2.2131819043792941e+01 -1 0 0
777 10 3 1.1500000000000000e-01 1.8024377969012306e+01 6.9095424528122873e+00 2.1464439165754090e+01 -1 0 0
778 10 5 1.1000000000000000e-01 -1.7606909480588588e+00 6.1944082521897332e+00 2.4123344699929483e+01 0 0 0
779 10 9 -5.4000000000000004e-01 -1.7191029731835614e+00 5.3554178938295092e+00 2.5252732231668993e+01 0 0 0
780 10 1 4.2999999999999999e-01 -2.6180316571304831e+00 4.9959773866724584e+00 2.5393549873164908e+01 0 0 0
781 10 6 -2.7000000000000002e-01 4.9443675665518860e+00 2.6640998526284946e+01 1.5182396741117628e+01 0 -1 0
782 10 2 8.9999999999999997e-02 4.9604844152584873e+00 2.5548760799105359e+01 1.4981823577292587e+01 0 -1 0
783 10 2 8.9999999999999997e-02 5.9716781239150185e+00 2.6974991561359221e+01 1.5433021651463752e+01 0 -1 0
784 10 2 8.9999999999999997e-02 4.2866572904523492e+00 2.6827707715489915e+01 1.6055829516597250e+01 0 -1 0
785 10 4 5.2000000000000002e-01 4.4218658262662656e+00 2.7354913276368755e+01 1.3996807793242072e+01 0 -1 0
786 10 8 -5.2000000000000002e-01 3.2124299807244463e+00 2.7408933800638412e+01 1.3800665754737782e+01 0 -1 0
787 10 7 -4.6999999999999997e-01 5.3252762733005374e+00 5.4477693642227254e-01 1.3319977319395941e+01 0 0 0
788 10 1 3.3000000000000002e-01 6.2683670976543153e+00 5.2127180787142524e-01 1.3653523402277269e+01 0 0 0
789 10 5 1.4000000000000001e-01 5.1675723541208800e+00 1.3398988442659687e+00 1.2158013889328503e+01 0 0 0
790 10 5 -1.1500000000000000e-01 4.0736937779565885e+00 1.2821316276646513e+00 1.1283348788295777e+01 0 0 0
791 10 3 1.1500000000000000e-01 3.2714409819796266e+00 5.8431578345596413e-01 1.1458489670497254e+01 0 0 0
792 10 5 -1.1500000000000000e-01 4.0193026499152689e+00 2.1232731597565144e+00 1.0159577917564949e+01 0 0 0
793 10 3 1.1500000000000000e-01 3.1737975865247701e+00 2.0694262676001576e+00 9.4902565287902867e+00 0 0 0
794 10 5 -1.1500000000000000e-01 6.1623819321043642e+00 3.0718608555246854e+00 1.0766037342569641e+01 0 0 0
795 10 3 1.1500000000000000e-01 6.9713241644504667e+00 3.7587210714895383e+00 1.0577899524465915e+01 0 0 0
796 10 5 -1.1500000000000000e-01 6.2065844098449681e+00 2.2453721436880834e+00 1.1894504340750480e+01 0 0 0
797 10 3 1.1500000000000000e-01 7.0521480833459194e+00 2.3014736705406187e+00 1.2561884210487193e+01 0 0 0
798 10 5 1.1000000000000000e-01 5.0658532938454908e+00 3.0166078606359723e+00 9.9029786818476335e+00 0 0 0
799 10 9 -5.4000000000000004e-01 5.0242653559294066e+00 3.8555982290220903e+00 8.7735911409280103e+00 0 0 0
800 10 1 4.2999999999999999e-01 5.9231939871868935e+00 4.2150387215249863e+00 8.6327735170636437e+00 0 0 0
1441 19 6 -2.7000000000000002e-01 -5.7617175399591058e-01 5.5087923494572664e+00 3.2086999015197101e+01 0 0 0
1442 19 2 8.9999999999999997e-02 -5.6008622545848352e-01 6.6010309110500085e+00 3.1886426199871948e+01 0 0 0
1443 19 2 8.9999999999999997e-02 4.5114609934141958e-01 5.1748052389636729e+00 3.2337611876120178e+01 0 0 0
1444 19 2 8.9999999999999997e-02 -1.2338733803800079e+00 5.3220688035242540e+00 3.2960434735968462e+01 0 0 0
1445 19 4 5.2000000000000002e-01 -1.0986602236373759e+00 4.7948863453641168e+00 3.0901407037617940e+01 0 0 0
1446 19 8 -5.2000000000000002e-01 -2.3081043063210736e+00 4.7408628741861767e+00 3.0705273977124133e+01 0 0 0
1447 19 7 -4.6999999999999997e-01 -1.9549432549192014e-01 4.0784364871396672e+00 3.0224579733435768e+01 0 0 0
1448 19 1 3.3000000000000002e-01 7.4760154271083223e-01 4.1019383798657429e+00 3.0558118851827125e+01 0 0 0
1449 19 5 1.4000000000000001e-01 -3.5318098292595623e-01 3.2833185985566713e+00 2.9062613023183367e+01 0 0 0
1450 19 5 -1.1500000000000000e-01 -1.4470651349269430e+00 3.3410979579535409e+00 2.8187954082121220e+01 0 0 0
1451 19 3 1.1500000000000000e-01 -2.2493280895289693e+00 4.0389083893807358e+00 2.8363095911736298e+01 0 0 0
1452 19 5 -1.1500000000000000e-01 -1.5014403573651216e+00 2.4999606755655872e+00 2.7064179623607195e+01 0 0 0
1453 19 3 1.1500000000000000e-01 -2.3469497188559396e+00 2.5538160367491747e+00 2.6394862874443028e+01 0 0 0
1454 19 5 -1.1500000000000000e-01 6.4165575850743739e-01 1.5513690871569887e+00 2.7670633684587532e+01 0 0 0
1455 19 3 1.1500000000000000e-01 1.4506082781781293e+00 8.6451418414072057e-01 2.7482496314491335e+01 0 0 0
1456 19 5 -1.1500000000000000e-01 6.8584303330965257e-01 2.3778541138549372e+00 2.8799104376710812e+01 0 0 0
1457 19 3 1.1500000000000000e-01 1.5314112394081865e+00 2.3217442327836357e+00 2.9466479590174711e+01 0 0 0
1458 19 5 1.1000000000000000e-01 -4.5487775026588473e-01 1.6066338157518731e+00 2.6807581991095084e+01 0 0 0
1459 19 9 -5.4000000000000004e-01 -4.9644549574366170e-01 7.6764690583312667e-01 2.5678189702794828e+01 0 0 0
1460 19 1 4.2999999999999999e-01 4.0248169740574724e-01 4.0820847491989554e-01 2.5537377800199554e+01 0 0 0
1461 19 6 -2.7000000000000002e-01 1.3584307542027880e+00 3.7021242690717537e+00 2.4478791496418449e+01 0 0 0
1462 19 2 8.9999999999999997e-02 1.3423453215912491e+00 2.6098857054810898e+00 2.4679364353183452e+01 0 0 0
1463 19 2 8.9999999999999997e-02 3.3111302159002642e-01 4.0361113703203619e+00 2.4228178654990465e+01 0 0 0
1464 19 2 8.9999999999999997e-02 2.0161325076430807e+00 3.8888478083136300e+00 2.3605355814281353e+01 0 0 0
1465 19 4 5.2000000000000002e-01 1.8809198817718396e+00 4.4160302547410675e+00 2.5664383607452802e+01 0 0 0
1466 19 8 -5.2000000000000002e-01 3.0903630497055810e+00 4.4700537169447374e+00 2.5860516496730625e+01 0 0 0
1467 19 7 -4.6999999999999997e-01 9.7775316890786623e-01 5.1324801706956240e+00 2.6341210776399166e+01 0 0 0
1468 19 1 3.3000000000000002e-01 3.4657647483912868e-02 5.1089782481299286e+00 2.6007671729737602e+01 0 0 0
1469 19 5 1.4000000000000001e-01 1.1354401408931487e+00 5.9275979971159840e+00 2.7503177539006327e+01 0 0 0
1470 19 5 -1.1500000000000000e-01 2.2293242261861526e+00 5.8698186622188349e+00 2.8377836455736116e+01 0 0 0
1471 19 3 1.1500000000000000e-01 3.0315871992855961e+00 5.1720082200211062e+00 2.8202694636533131e+01 0 0 0
1472 19 5 -1.1500000000000000e-01 2.2836994674838405e+00 6.7109559386352968e+00 2.9501610912927863e+01 0 0 0
1473 19 3 1.1500000000000000e-01 3.1292088272794656e+00 6.6571005803265368e+00 3.0170927663691362e+01 0 0 0
1474 19 5 -1.1500000000000000e-01 1.4060334561780818e-01 7.6595475217427103e+00 2.8895156861760189e+01 0 0 0
1475 19 3 1.1500000000000000e-01 -6.6834917639994940e-01 8.3464024212630541e+00 2.9083294236338642e+01 0 0 0
1476 19 5 -1.1500000000000000e-01 9.6416049321748076e-02 6.8330624945917755e+00 2.7766686158523147e+01 0 0 0
1477 19 3 1.1500000000000000e-01 -7.4915213652778068e-01 6.8891723699070928e+00 2.7099310962832039e+01 0 0 0
1478 19 5 1.1000000000000000e-01 1.2371368587267026e+00 7.6042827979854151e+00 2.9758208548405367e+01 0 0 0
1479 19 9 -5.4000000000000004e-01 1.2787045889068134e+00 8.4432697144882294e+00 3.0887600831461118e+01 0 0 0
1480 19 1 4.2999999999999999e-01 3.7977743042040224e-01 8.8027081447758899e+00 3.1028412756775595e+01 0 0 0
1481 19 6 -2.7000000000000002e-01 -2.9009036210767341e+00 1.0096562368146657e+01 3.0113660229259988e+01 0 0 0
1482 19 2 8.9999999999999997e-02 -2.9170205322041340e+00 1.1188800091159809e+01 3.0314233397946520e+01 0 0 0
1483 19 2 8.9999999999999997e-02 1.7843149440839163e+01 9.7625693378109926e+00 2.9863035323198613e+01 -1 0 0
1484 19 2 8.9999999999999997e-02 -2.2431934225313706e+00 9.9098531813240260e+00 2.9240227456206270e+01 0 0 0
1485 19 4 5.2000000000000002e-01 -2.3784023033188069e+00 9.3826476077562972e+00 3.1299249162547977e+01 0 0 0
1486 19 8 -5.2000000000000002e-01 -1.1689658772436773e+00 9.3286270729704270e+00 3.1495391221083320e+01 0 0 0
1487 19 7 -4.6999999999999997e-01 -3.2815653857763074e+00 8.6661894534478350e+00 3.1976079641611559e+01 0 0 0
1488 19 1 3.3000000000000002e-01 1.7546707275754898e+01 8.6896945590290553e+00 3.1642533563812560e+01 -1 0 0
1489 19 5 1.4000000000000001e-01 -3.1238616537803696e+00 7.8710675102583529e+00 3.3138043066698089e+01 0 0 0
1490 19 5 -1.1500000000000000e-01 1.7543718314405647e+00 7.9289839957706176e+00 2.0350742903517199e-01 0 0 1
1491 19 3 1.1500000000000000e-01 -1.2277302482225747e+00 8.6266505775453197e+00 3.3837567293399132e+01 0 0 0
1492 19 5 -1.1500000000000000e-01 1.8087629428901006e+00 7.0878424606327668e+00 1.3272783036614300e+00 0 0 1
1493 19 3 1.1500000000000000e-01 2.6542680052210277e+00 7.1416893528634704e+00 1.9965996896015787e+00 0 0 1
1494 19 5 -1.1500000000000000e-01 2.1437047364588722e+01 6.1392547651798939e+00 7.2081886813844165e-01 -1 0 1
1495 19 3 1.1500000000000000e-01 2.0628105129957181e+01 5.4523945478747740e+00 9.0895668564074650e-01 -1 0 1
1496 19 5 -1.1500000000000000e-01 1.7608490032133535e+01 6.9655942239958115e+00 3.3401552623343250e+01 -1 0 0
1497 19 3 1.1500000000000000e-01 1.6762926346905555e+01 6.9094927016863634e+00 3.2734172751529783e+01 -1 0 0
1498 19 5 1.1000000000000000e-01 7.6221229714552652e-01 6.1945077538373940e+00 1.5838775331444817e+00 0 0 1
1499 19 9 -5.4000000000000004e-01 8.0380027552278421e-01 5.3555173946540071e+00 2.7132650825793361e+00 0 0 1
1500 19 1 4.2999999999999999e-01 -9.5128415897217905e-02 4.9960768893213814e+00 2.8540826957095464e+00 0 0 1
1501 19 6 -2.7000000000000002e-01 3.6829159422075866e+00 2.6640948776166322e+01 2.6452130329652572e+01 0 -1 0
1502 19 2 8.9999999999999997e-02 3.6990327933791121e+00 2.5548711048073592e+01 2.6251557157511730e+01 0 -1 0
1503 19 2 8.9999999999999997e-02 4.7102265020817349e+00 2.6974941809941814e+01 2.6702755231316182e+01 0 -1 0
1504 19 2 8.9999999999999997e-02 3.0252056674922199e+00 2.6827657964045684e+01 2.7325563097887471e+01 0 -1 0
1505 19 4 5.2000000000000002e-01 3.1604142073241124e+00 2.7354863525161917e+01 2.5266541351484889e+01 0 -1 0
1506 19 8 -5.2000000000000002e-01 1.9509783576964836e+00 2.7408884049388142e+01 2.5070399358657824e+01 0 -1 0
1507 19 7 -4.6999999999999997e-01 4.0638246485934575e+00 5.4472718607541315e-01 2.4589710917674097e+01 0 0 0
1508 19 1 3.3000000000000002e-01 5.0069154756926366e+00 5.2122205669475130e-01 2.4923256972625655e+01 0 0 0
1509 19 5 1.4000000000000001e-01 3.9061207310569479e+00 1.3398490931967237e+00 2.3427747469373685e+01 0 0 0
1510 19 5 -1.1500000000000000e-01 2.8122421553700283e+00 1.2820818762513633e+00 2.2553082372534476e+01 0 0 0
1511 19 3 1.1500000000000000e-01 2.0099893601288512e+00 5.8426603292349844e-01 2.2728223250336331e+01 0 0 0
1512 19 5 -1.1500000000000000e-01 2.7578510279564528e+00 2.1232234079943320e+00 2.1429311500478743e+01 0 0 0
1513 19 3 1.1500000000000000e-01 1.9123459633043773e+00 2.0693765173689713e+00 2.0759990109136748e+01 0 0 0
1514 19 5 -1.1500000000000000e-01 4.9009303103857107e+00 3.0718111045468643e+00 2.2035770926739623e+01 0 0 0
1515 19 3 1.1500000000000000e-01 5.7098725416665861e+00 3.7586713203423336e+00 2.1847633104160749e+01 0 0 0
1516 19 5 -1.1500000000000000e-01 4.9451327882518896e+00 2.2453223927750674e+00 2.3164237924576600e+01 0 0 0
1517 19 3 1.1500000000000000e-01 5.7906964598487036e+00 2.3014239188373904e+00 2.3831617791421596e+01 0 0 0
1518 19 5 1.1000000000000000e-01 3.8044016704709493e+00 3.0165581102443717e+00 2.1172712263154306e+01 0 0 0
1519 19 9 -5.4000000000000004e-01 3.7628137334616678e+00 3.8555484776432687e+00 2.0043324735421518e+01 0 0 0
1520 19 1 4.2999999999999999e-01 4.6617423674268643e+00 4.2149889708153694e+00 1.9902507087474962e+01 0 0 0
241 4 6 -2.7000000000000002e-01 1.9466492058388174e+00 1.4684423359789101e+01 9.5475318570341638e+00 0 0 0
242 4 2 8.9999999999999997e-02 1.9627347368364383e+00 1.5776661922303658e+01 9.3469590334032784e+00 0 0 0
243 4 2 8.9999999999999997e-02 2.9739670616846148e+00 1.4350436250605840e+01 9.7981447092817824e+00 0 0 0
244 4 2 8.9999999999999997e-02 1.2889475808360658e+00 1.4497699815192131e+01 1.0420967570565640e+01 0 0 0
245 4 4 5.2000000000000002e-01 1.4241607416055695e+00 1.3970517356797936e+01 8.3619398491646990e+00 0 0 0
246 4 8 -5.2000000000000002e-01 2.1471665482156532e-01 1.3916493885651585e+01 8.1658068343632308e+00 0 0 0
247 4 7 -4.6999999999999997e-01 2.3273266339672776e+00 1.3254067497699241e+01 7.6851125850451414e+00 0 0 0
248 4 1 3.3000000000000002e-01 3.2704225049327564e+00 1.3277569391268781e+01 8.0186516754765549e+00 0 0 0
249 4 5 1.4000000000000001e-01 2.1696399781865545e+00 1.2458949609846957e+01 6.5231458565374920e+00 0 0 0
250 4 5 -1.1500000000000000e-01 1.0757558266593863e+00 1.2516728969589058e+01 5.6484869196723144e+00 0 0 0
251 4 3 1.1500000000000000e-01 2.7349287279272838e-01 1.3214539400134170e+01 5.8236287448835027e+00 0 0 0
252 4 5 -1.1500000000000000e-01 1.0213806048514389e+00 1.1675591687546222e+01 4.5247124598299422e+00 0 0 0
253 4 3 1.1500000000000000e-01 1.7587124210082705e-01 1.1729447047205824e+01 3.8553957080991665e+00 0 0 0
254 4 5 -1.1500000000000000e-01 3.1644767209613756e+00 1.0727000098357518e+01 5.1311665220664464e+00 0 0 0
255 4 3 1.1500000000000000e-01 3.9734292395683344e+00 1.0040145195510583e+01 4.9430291474982768e+00 0 0 0
256 4 5 -1.1500000000000000e-01 3.2086639958914804e+00 1.1553485124987192e+01 6.2596372138498246e+00 0 0 0
257 4 3 1.1500000000000000e-01 4.0542322000862132e+00 1.1497375244708479e+01 6.9270124244160085e+00 0 0 0
258 4 5 1.1000000000000000e-01 2.0679432105361935e+00 1.0782264826365308e+01 4.2681148257123667e+00 0 0 0
259 4 9 -5.4000000000000004e-01 2.0263754659510438e+00 9.9432779174370332e+00 3.1387225506050753e+00 0 0 0
260 4 1 4.2999999999999999e-01 2.9253026618162923e+00 9.5838394858476068e+00 2.9979106239321207e+00 0 0 0
261 4 6 -2.7000000000000002e-01 3.8812517140381098e+00 1.2877755279404331e+01 1.9393243382562315e+00 0 0 0
262 4 2 8.9999999999999997e-02 3.8651662838860856e+00 1.1785516716734803e+01 2.1398971867148502e+00 0 0 0
263 4 2 8.9999999999999997e-02 2.8539339839333659e+00 1.3211742381962381e+01 1.6887114881519496e+00 0 0 0
264 4 2 8.9999999999999997e-02 4.5389534688592788e+00 1.3064478819981654e+01 1.0658886488783690e+00 0 0 0
265 4 4 5.2000000000000002e-01 4.4037408470151176e+00 1.3591661266175592e+01 3.1249164190007690e+00 0 0 0