converted configuration (CHARMM -> GAFF):                105  ureas, 777 waters

              3171  atoms
              2289  bonds
              1722  angles
1155 dihedrals

                

                 6  atom types
                 4  bond types
                 5  angle types
4 dihedral types


    -17.5000      17.5000 xlo xhi
    -17.5000      17.5000 ylo yhi
    -17.5000      17.5000 zlo zhi

Masses

       1         1.008  # HGP1
       2         1.008  # HT
       3        12.011  # CG2O6
       4        14.007  # NG2S2
       5        15.999  # OG2D1
       6        15.999  # OT

Pair Coeffs

       1 0.0157 1.06908  #  H urea
       2 0 0 # H water
       3 0.086 3.39967 # C urea
       4 0.17 3.25 # N urea
       5 0.21 2.95992 # O urea
       6 0.2104 3.06647 # O water
Atoms

1 1 4 -0.9306 -0.1814852442 1.1010856152 0.0418270057 # HAA1-1-UREA-N1-NG2S2
2 1 1 0.38644 0.3054131135 1.9645809502 0.0278220767 # HAA1-1-UREA-H11-HGP1
3 1 1 0.385614 -1.1688307043 1.0516676748 0.0334239241 # HAA1-1-UREA-H12-HGP1
4 1 3 0.924566 0.5203276066 -0.0172839530 -0.0677144730 # HAA1-1-UREA-C2-CG2O6
5 1 5 -0.608053 1.7454884943 -0.0585903458 -0.1870807994 # HAA1-1-UREA-O2-OG2D1
6 1 4 -0.927599 -0.2561311771 -1.0891523834 0.0029717654 # HAA1-1-UREA-N3-NG2S2
7 1 1 0.38412 -1.2303555198 -0.9900923148 0.1515263167 # HAA1-1-UREA-H31-HGP1
8 1 1 0.385512 0.1750926427 -1.9822015343 0.0166459200 # HAA1-1-UREA-H32-HGP1
9 1 4 -0.9306 -0.9671531903 4.8205634475 6.0562824567 # HAA2-1-UREA-N1-NG2S2
10 1 1 0.38644 -0.4708139301 4.7897588247 6.9194080569 # HAA2-1-UREA-H11-HGP1
11 1 1 0.385614 -0.7012249785 4.3086149006 5.2460218220 # HAA2-1-UREA-H12-HGP1
12 1 3 0.924566 -2.0596810569 5.5796039940 6.0325932137 # HAA2-1-UREA-C2-CG2O6
13 1 5 -0.608053 -2.4890473621 6.2096026138 7.0009633630 # HAA2-1-UREA-O2-OG2D1
14 1 4 -0.927599 -2.6568651983 5.5624445674 4.8460784617 # HAA2-1-UREA-N3-NG2S2
15 1 1 0.38412 -2.2524094035 5.0386042651 4.1058500281 # HAA2-1-UREA-H31-HGP1
16 1 1 0.385512 -3.5692763331 5.9497796995 4.7588023534 # HAA2-1-UREA-H32-HGP1
17 1 4 -0.9306 0.2256384948 -3.3373753138 -6.2406219137 # HAA3-1-UREA-N1-NG2S2
18 1 1 0.38644 0.5412195118 -2.9149526606 -5.3975015772 # HAA3-1-UREA-H11-HGP1
19 1 1 0.385614 0.4812386154 -4.2702949339 -6.4598891329 # HAA3-1-UREA-H12-HGP1
20 1 3 0.924566 0.0360373648 -2.5237126937 -7.2701307547 # HAA3-1-UREA-C2-CG2O6
21 1 5 -0.608053 0.0029461698 -1.2930136080 -7.1937522146 # HAA3-1-UREA-O2-OG2D1
22 1 4 -0.927599 -0.0592796107 -3.2261448005 -8.3921533399 # HAA3-1-UREA-N3-NG2S2
23 1 1 0.38412 -0.1556515688 -4.2109157533 -8.3392050457 # HAA3-1-UREA-H31-HGP1
24 1 1 0.385512 -0.0609854124 -2.7170391001 -9.2428411086 # HAA3-1-UREA-H32-HGP1
25 1 4 -0.9306 -6.1597697265 1.7554907571 -3.4314395307 # HAA4-1-UREA-N1-NG2S2
26 1 1 0.38644 -6.0352048703 2.0734160358 -2.4994136014 # HAA4-1-UREA-H11-HGP1
27 1 1 0.385614 -5.8251988449 0.8714772338 -3.7364081695 # HAA4-1-UREA-H12-HGP1
28 1 3 0.924566 -6.4146422579 2.6729126058 -4.3464085791 # HAA4-1-UREA-C2-CG2O6
29 1 5 -0.608053 -6.6132889489 3.8718758846 -4.1402408309 # HAA4-1-UREA-O2-OG2D1
30 1 4 -0.927599 -6.4374854446 2.0854507714 -5.5324231096 # HAA4-1-UREA-N3-NG2S2
31 1 1 0.38412 -6.4691977483 1.0960348489 -5.5839143052 # HAA4-1-UREA-H31-HGP1
32 1 1 0.385512 -6.7470493499 2.6640213132 -6.2827600863 # HAA4-1-UREA-H32-HGP1
33 1 4 -0.9306 7.3801194187 1.3952663228 -0.8901191411 # HAA5-1-UREA-N1-NG2S2
34 1 1 0.38644 7.6617135670 2.0435865616 -0.1845110954 # HAA5-1-UREA-H11-HGP1
35 1 1 0.385614 7.1637560363 0.4801343641 -0.5579239063 # HAA5-1-UREA-H12-HGP1
36 1 3 0.924566 8.0854338789 1.4919987503 -2.0112284005 # HAA5-1-UREA-C2-CG2O6
37 1 5 -0.608053 8.7138326904 2.4979778554 -2.3516360533 # HAA5-1-UREA-O2-OG2D1
38 1 4 -0.927599 8.0167532128 0.3554310125 -2.6998141919 # HAA5-1-UREA-N3-NG2S2
39 1 1 0.38412 7.6171490028 -0.4418114257 -2.2706700685 # HAA5-1-UREA-H31-HGP1
40 1 1 0.385512 8.7864302159 0.1761271162 -3.3162865769 # HAA5-1-UREA-H32-HGP1
41 1 4 -0.9306 -1.9355683169 -6.8508099868 0.9959136928 # HAA6-1-UREA-N1-NG2S2
42 1 1 0.38644 -1.4348175270 -5.9963819915 0.9302762136 # HAA6-1-UREA-H11-HGP1
43 1 1 0.385614 -2.8865398880 -6.8954130006 0.7260377576 # HAA6-1-UREA-H12-HGP1
44 1 3 0.924566 -1.1882753000 -7.9572065067 1.0510960510 # HAA6-1-UREA-C2-CG2O6
45 1 5 -0.608053 0.0363646116 -7.9268738731 1.1852258005 # HAA6-1-UREA-O2-OG2D1
46 1 4 -0.927599 -1.9001292701 -9.0859435821 0.9518342212 # HAA6-1-UREA-N3-NG2S2
47 1 1 0.38412 -2.8910832602 -9.0595688053 0.8264469430 # HAA6-1-UREA-H31-HGP1
48 1 1 0.385512 -1.3573489619 -9.9053071190 0.7972180442 # HAA6-1-UREA-H32-HGP1
49 1 4 -0.9306 0.2853489507 -2.9807090747 8.6307208245 # HAA7-1-UREA-N1-NG2S2
50 1 1 0.38644 0.4957402673 -2.9080079866 9.6096175961 # HAA7-1-UREA-H11-HGP1
51 1 1 0.385614 0.7160761073 -3.6352916634 8.0246721706 # HAA7-1-UREA-H12-HGP1
52 1 3 0.924566 -0.4811860113 -2.0404544024 8.0924838577 # HAA7-1-UREA-C2-CG2O6
53 1 5 -0.608053 -0.9224887306 -1.0665995681 8.7053688143 # HAA7-1-UREA-O2-OG2D1
54 1 4 -0.927599 -0.6963110333 -2.2605958837 6.7973777303 # HAA7-1-UREA-N3-NG2S2
55 1 1 0.38412 -0.2039426397 -2.9989891326 6.3482260884 # HAA7-1-UREA-H31-HGP1
56 1 1 0.385512 -1.0930080353 -1.5187087993 6.2714520851 # HAA7-1-UREA-H32-HGP1
57 1 4 -0.9306 2.5661920161 5.6082229528 -6.8751127132 # HAA8-1-UREA-N1-NG2S2
58 1 1 0.38644 3.3225353310 6.2360651479 -7.0212004442 # HAA8-1-UREA-H11-HGP1
59 1 1 0.385614 1.6978286441 5.7202615339 -7.3557012002 # HAA8-1-UREA-H12-HGP1
60 1 3 0.924566 2.8526531907 4.4484798301 -6.2966204677 # HAA8-1-UREA-C2-CG2O6
61 1 5 -0.608053 3.9536346465 4.1655721726 -5.8160273234 # HAA8-1-UREA-O2-OG2D1
62 1 4 -0.927599 1.8034616432 3.6308539251 -6.3445147143 # HAA8-1-UREA-N3-NG2S2
63 1 1 0.38412 1.0048887294 3.8962538922 -6.8734288450 # HAA8-1-UREA-H31-HGP1
64 1 1 0.385512 1.9455267534 2.7085460001 -6.0075063454 # HAA8-1-UREA-H32-HGP1
65 1 4 -0.9306 -6.6826706765 -2.1903299774 2.3772892315 # HAA9-1-UREA-N1-NG2S2
66 1 1 0.38644 -5.7335407137 -2.1904322188 2.6763505675 # HAA9-1-UREA-H11-HGP1
67 1 1 0.385614 -6.9563797434 -2.0413954314 1.4376369934 # HAA9-1-UREA-H12-HGP1
68 1 3 0.924566 -7.5911474811 -2.5701036622 3.2609742968 # HAA9-1-UREA-C2-CG2O6
69 1 5 -0.608053 -7.3341358637 -2.7512987197 4.4446071032 # HAA9-1-UREA-O2-OG2D1
70 1 4 -0.927599 -8.8103523649 -2.6109513223 2.7407441034 # HAA9-1-UREA-N3-NG2S2
71 1 1 0.38412 -8.9805373644 -2.2275395165 1.8507286178 # HAA9-1-UREA-H31-HGP1
72 1 1 0.385512 -9.5352044413 -2.6652473748 3.4228772352 # HAA9-1-UREA-H32-HGP1
73 1 4 -0.9306 6.1706357247 -4.3737344986 2.5456350458 # HAA10-1-UREA-N1-NG2S2
74 1 1 0.38644 6.8522014809 -3.6704090637 2.7308213482 # HAA10-1-UREA-H11-HGP1
75 1 1 0.385614 5.2776850801 -4.1846921926 2.1527387137 # HAA10-1-UREA-H12-HGP1
76 1 3 0.924566 6.3946043018 -5.5594168540 3.1002317609 # HAA10-1-UREA-C2-CG2O6
77 1 5 -0.608053 7.4409725750 -5.8571838006 3.6813810621 # HAA10-1-UREA-O2-OG2D1
78 1 4 -0.927599 5.3653037506 -6.3914988972 2.9247845219 # HAA10-1-UREA-N3-NG2S2
79 1 1 0.38412 4.5738121993 -6.0702636881 2.4124534167 # HAA10-1-UREA-H31-HGP1
80 1 1 0.385512 5.6086543677 -7.3535670616 2.9983741891 # HAA10-1-UREA-H32-HGP1
81 1 4 -0.9306 4.3074605641 8.6011438310 0.6403226756 # HAA11-1-UREA-N1-NG2S2
82 1 1 0.38644 5.0153627693 9.2927402262 0.7548436774 # HAA11-1-UREA-H11-HGP1
83 1 1 0.385614 3.3691911870 8.8544084476 0.8202727655 # HAA11-1-UREA-H12-HGP1
84 1 3 0.924566 4.6708222403 7.4251372858 1.1453787883 # HAA11-1-UREA-C2-CG2O6
85 1 5 -0.608053 5.8227614950 7.1361298255 1.4609917587 # HAA11-1-UREA-O2-OG2D1
86 1 4 -0.927599 3.6488449925 6.5831908806 1.3066757232 # HAA11-1-UREA-N3-NG2S2
87 1 1 0.38412 2.7906284559 6.7849623051 0.8428562479 # HAA11-1-UREA-H31-HGP1
88 1 1 0.385512 3.8885646181 5.6690788123 1.6261509618 # HAA11-1-UREA-H32-HGP1
89 1 4 -0.9306 6.2746662623 1.9069988679 7.1913678636 # HAA12-1-UREA-N1-NG2S2
90 1 1 0.38644 6.1771902482 2.6364394511 7.8568411569 # HAA12-1-UREA-H11-HGP1
91 1 1 0.385614 5.7104401110 1.0911297935 7.2206564684 # HAA12-1-UREA-H12-HGP1
92 1 3 0.924566 6.8136041197 2.2681717354 6.0392648108 # HAA12-1-UREA-C2-CG2O6
93 1 5 -0.608053 7.2684066729 3.3868592990 5.8070994239 # HAA12-1-UREA-O2-OG2D1
94 1 4 -0.927599 6.8088562944 1.2520999639 5.1910779556 # HAA12-1-UREA-N3-NG2S2
95 1 1 0.38412 6.6431270039 0.3351307794 5.5373165505 # HAA12-1-UREA-H31-HGP1
96 1 1 0.385512 7.4322120427 1.3532795929 4.4118075414 # HAA12-1-UREA-H32-HGP1
97 1 4 -0.9306 -2.4777685755 10.1460138498 -3.1529959617 # HAA13-1-UREA-N1-NG2S2
98 1 1 0.38644 -1.6818040095 10.7348296733 -3.1823731450 # HAA13-1-UREA-H11-HGP1
99 1 1 0.385614 -3.3739561166 10.5665156110 -3.2314514800 # HAA13-1-UREA-H12-HGP1
100 1 3 0.924566 -2.3594232161 9.0160142308 -2.4732178271 # HAA13-1-UREA-C2-CG2O6
101 1 5 -0.608053 -1.3035998167 8.5987604725 -1.9976235946 # HAA13-1-UREA-O2-OG2D1
102 1 4 -0.927599 -3.5231154228 8.3890196868 -2.4148768096 # HAA13-1-UREA-N3-NG2S2
103 1 1 0.38412 -4.2326418607 8.6706225263 -3.0526286337 # HAA13-1-UREA-H31-HGP1
104 1 1 0.385512 -3.4366931420 7.4602427860 -2.0704654986 # HAA13-1-UREA-H32-HGP1
105 1 4 -0.9306 -7.1707680248 -5.9306314126 -3.8672422215 # HAA14-1-UREA-N1-NG2S2
106 1 1 0.38644 -7.1223105538 -5.3420866249 -3.0669278932 # HAA14-1-UREA-H11-HGP1
107 1 1 0.385614 -7.2032213025 -6.9168725838 -3.7810312650 # HAA14-1-UREA-H12-HGP1
108 1 3 0.924566 -6.8600305383 -5.3651068609 -5.0293064520 # HAA14-1-UREA-C2-CG2O6
109 1 5 -0.608053 -6.7455548544 -4.1538852457 -5.1704982655 # HAA14-1-UREA-O2-OG2D1
110 1 4 -0.927599 -6.7152697061 -6.2322186221 -6.0333761201 # HAA14-1-UREA-N3-NG2S2
111 1 1 0.38412 -6.6601631113 -7.2102423301 -5.8572676604 # HAA14-1-UREA-H31-HGP1
112 1 1 0.385512 -6.5311628546 -5.8319825144 -6.9226227862 # HAA14-1-UREA-H32-HGP1
113 1 4 -0.9306 6.4806508424 -6.6965371758 -4.9890117510 # HAA15-1-UREA-N1-NG2S2
114 1 1 0.38644 7.3153536160 -6.1647784610 -4.9314109377 # HAA15-1-UREA-H11-HGP1
115 1 1 0.385614 5.6452763512 -6.3272204530 -5.3883128911 # HAA15-1-UREA-H12-HGP1
116 1 3 0.924566 6.4015197709 -7.7457034351 -4.1809554822 # HAA15-1-UREA-C2-CG2O6
117 1 5 -0.608053 7.3296356954 -8.1970759019 -3.5136785226 # HAA15-1-UREA-O2-OG2D1
118 1 4 -0.927599 5.1674674776 -8.2289069668 -4.1864009399 # HAA15-1-UREA-N3-NG2S2
119 1 1 0.38412 4.4731208304 -7.7544781417 -4.7122915629 # HAA15-1-UREA-H31-HGP1
120 1 1 0.385512 4.9352021719 -8.8566226504 -3.4544026997 # HAA15-1-UREA-H32-HGP1
121 1 4 -0.9306 -8.4203668972 6.6349683748 1.6225504327 # HAA16-1-UREA-N1-NG2S2
122 1 1 0.38644 -7.5562623025 7.0091383976 1.9421910946 # HAA16-1-UREA-H11-HGP1
123 1 1 0.385614 -9.0035784534 7.1207082489 0.9805646367 # HAA16-1-UREA-H12-HGP1
124 1 3 0.924566 -9.0305349019 5.8744636706 2.5226786065 # HAA16-1-UREA-C2-CG2O6
125 1 5 -0.608053 -8.5145504833 5.5115056814 3.5745549775 # HAA16-1-UREA-O2-OG2D1
126 1 4 -0.927599 -10.2831411064 5.6374741475 2.1660357127 # HAA16-1-UREA-N3-NG2S2
127 1 1 0.38412 -10.7158297594 6.1504384210 1.4214940354 # HAA16-1-UREA-H31-HGP1
128 1 1 0.385512 -10.8424985677 5.2013516689 2.8599029710 # HAA16-1-UREA-H32-HGP1
129 1 4 -0.9306 -7.5536337127 3.0216900063 9.0754590636 # HAA17-1-UREA-N1-NG2S2
130 1 1 0.38644 -6.7977758963 3.6399399331 9.2570608293 # HAA17-1-UREA-H11-HGP1
131 1 1 0.385614 -8.4625971916 3.4392728919 9.0353990218 # HAA17-1-UREA-H12-HGP1
132 1 3 0.924566 -7.3791276646 1.8604487274 9.7075115175 # HAA17-1-UREA-C2-CG2O6
133 1 5 -0.608053 -6.3423861917 1.5641957286 10.2974590959 # HAA17-1-UREA-O2-OG2D1
134 1 4 -0.927599 -8.4118819119 1.0460648397 9.5791380049 # HAA17-1-UREA-N3-NG2S2
135 1 1 0.38412 -9.0489517725 1.2426220333 8.8455406415 # HAA17-1-UREA-H31-HGP1
136 1 1 0.385512 -8.1915736551 0.0984838079 9.7933622755 # HAA17-1-UREA-H32-HGP1
137 1 4 -0.9306 9.8034797509 -2.1871010121 -9.2284244456 # HAA18-1-UREA-N1-NG2S2
138 1 1 0.38644 10.4936633559 -2.1251010530 -8.5131906285 # HAA18-1-UREA-H11-HGP1
139 1 1 0.385614 10.0616952751 -2.1021850707 -10.1851252398 # HAA18-1-UREA-H12-HGP1
140 1 3 0.924566 8.5990081299 -1.7179959102 -8.9241261666 # HAA18-1-UREA-C2-CG2O6
141 1 5 -0.608053 8.2543463774 -1.3108859513 -7.8121693005 # HAA18-1-UREA-O2-OG2D1
142 1 4 -0.927599 7.8012531129 -1.6758508660 -9.9970040711 # HAA18-1-UREA-N3-NG2S2
143 1 1 0.38412 8.0758624385 -1.9902978646 -10.8989436981 # HAA18-1-UREA-H31-HGP1
144 1 1 0.385512 6.8975337156 -1.2873474387 -9.8270263398 # HAA18-1-UREA-H32-HGP1
145 1 4 -0.9306 -6.0470984060 -6.7111662817 8.2808919398 # HAA19-1-UREA-N1-NG2S2
146 1 1 0.38644 -5.4729365787 -5.9097188681 8.4067626393 # HAA19-1-UREA-H11-HGP1
147 1 1 0.385614 -7.0354268509 -6.6641110690 8.2047022500 # HAA19-1-UREA-H12-HGP1
148 1 3 0.924566 -5.5239581801 -7.8798443320 8.6111764489 # HAA19-1-UREA-C2-CG2O6
149 1 5 -0.608053 -4.3316528596 -8.0796337888 8.8254429169 # HAA19-1-UREA-O2-OG2D1
150 1 4 -0.927599 -6.4412223027 -8.8349069935 8.5937174769 # HAA19-1-UREA-N3-NG2S2
151 1 1 0.38412 -6.9568291117 -8.8335446407 7.7232225274 # HAA19-1-UREA-H31-HGP1
152 1 1 0.385512 -6.0245226868 -9.7088471894 8.7858241883 # HAA19-1-UREA-H32-HGP1
153 1 4 -0.9306 2.3904508827 -9.0507939540 7.7858845577 # HAA20-1-UREA-N1-NG2S2
154 1 1 0.38644 3.1713353114 -8.4475628198 7.6340133301 # HAA20-1-UREA-H11-HGP1
155 1 1 0.385614 1.5067976726 -8.9647991505 7.3490937745 # HAA20-1-UREA-H12-HGP1
156 1 3 0.924566 2.6388028790 -10.1766460683 8.4481813591 # HAA20-1-UREA-C2-CG2O6
157 1 5 -0.608053 3.7320553462 -10.4508594554 8.9357911506 # HAA20-1-UREA-O2-OG2D1
158 1 4 -0.927599 1.5594304036 -10.9494535207 8.5583337261 # HAA20-1-UREA-N3-NG2S2
159 1 1 0.38412 0.6692174974 -10.5715832099 8.3013370178 # HAA20-1-UREA-H31-HGP1
160 1 1 0.385512 1.6627861239 -11.8264383383 9.0168593367 # HAA20-1-UREA-H32-HGP1
161 1 4 -0.9306 -1.6575249979 -10.2883613283 -6.6010972985 # HAA21-1-UREA-N1-NG2S2
162 1 1 0.38644 -1.1292313557 -9.4683106656 -6.4257538622 # HAA21-1-UREA-H11-HGP1
163 1 1 0.385614 -2.6558597736 -10.3345511427 -6.5264208498 # HAA21-1-UREA-H12-HGP1
164 1 3 0.924566 -0.9428973223 -11.4085625986 -6.6809619416 # HAA21-1-UREA-C2-CG2O6
165 1 5 -0.608053 0.2803527515 -11.4537122577 -6.6179845179 # HAA21-1-UREA-O2-OG2D1
166 1 4 -0.927599 -1.7110550262 -12.4833849122 -6.7785526093 # HAA21-1-UREA-N3-NG2S2
167 1 1 0.38412 -2.6950346520 -12.3452116492 -6.7781109182 # HAA21-1-UREA-H31-HGP1
168 1 1 0.385512 -1.2826348450 -13.3729577599 -6.9369635642 # HAA21-1-UREA-H32-HGP1
169 1 4 -0.9306 -6.4756687824 0.5718772171 -11.1950578796 # HAA22-1-UREA-N1-NG2S2
170 1 1 0.38644 -6.7079844549 1.4219423420 -10.7374099245 # HAA22-1-UREA-H11-HGP1
171 1 1 0.385614 -6.6698060278 -0.3378710188 -10.8482408077 # HAA22-1-UREA-H12-HGP1
172 1 3 0.924566 -5.6614388342 0.6936492638 -12.2214688955 # HAA22-1-UREA-C2-CG2O6
173 1 5 -0.608053 -5.0528631471 1.7220616830 -12.5005248894 # HAA22-1-UREA-O2-OG2D1
174 1 4 -0.927599 -5.5960059207 -0.4267229297 -12.9169482493 # HAA22-1-UREA-N3-NG2S2
175 1 1 0.38412 -6.2535748405 -1.1448783829 -12.7266584561 # HAA22-1-UREA-H31-HGP1
176 1 1 0.385512 -5.1444333597 -0.3404199737 -13.8116884614 # HAA22-1-UREA-H32-HGP1
177 1 4 -0.9306 4.9454445888 8.3707685638 10.2819371218 # HAA23-1-UREA-N1-NG2S2
178 1 1 0.38644 5.1961282125 8.7895670071 11.1489999768 # HAA23-1-UREA-H11-HGP1
179 1 1 0.385614 5.3304450141 7.4755915718 10.0764368889 # HAA23-1-UREA-H12-HGP1
180 1 3 0.924566 4.8484179272 9.1945233262 9.2434557942 # HAA23-1-UREA-C2-CG2O6
181 1 5 -0.608053 4.7266315572 10.4148105919 9.3333413685 # HAA23-1-UREA-O2-OG2D1
182 1 4 -0.927599 4.8958346315 8.5293067971 8.0944877107 # HAA23-1-UREA-N3-NG2S2
183 1 1 0.38412 4.4667351362 7.6323378105 8.0931175959 # HAA23-1-UREA-H31-HGP1
184 1 1 0.385512 4.8294908299 9.0846904222 7.2722767981 # HAA23-1-UREA-H32-HGP1
185 1 4 -0.9306 3.6399594248 -12.3541001961 1.3158857063 # HAA24-1-UREA-N1-NG2S2
186 1 1 0.38644 3.7746219501 -11.3753889592 1.3802659334 # HAA24-1-UREA-H11-HGP1
187 1 1 0.385614 2.7157080999 -12.7120870553 1.3079326749 # HAA24-1-UREA-H12-HGP1
188 1 3 0.924566 4.5484393351 -13.0098385667 0.6044871181 # HAA24-1-UREA-C2-CG2O6
189 1 5 -0.608053 5.5889519072 -12.4899962836 0.2079959260 # HAA24-1-UREA-O2-OG2D1
190 1 4 -0.927599 4.2048739335 -14.2801055644 0.4102418762 # HAA24-1-UREA-N3-NG2S2
191 1 1 0.38412 3.2868284897 -14.5589339418 0.6429614298 # HAA24-1-UREA-H31-HGP1
192 1 1 0.385512 4.8636676481 -14.8962980431 -0.0268395407 # HAA24-1-UREA-H32-HGP1
193 1 4 -0.9306 9.6832163241 10.0246323667 -5.0696917502 # HAA25-1-UREA-N1-NG2S2
194 1 1 0.38644 10.5037709190 10.5775207207 -5.1245948509 # HAA25-1-UREA-H11-HGP1
195 1 1 0.385614 8.8750954252 10.2015698645 -5.6147347132 # HAA25-1-UREA-H12-HGP1
196 1 3 0.924566 9.8251028672 8.8513274358 -4.4729800381 # HAA25-1-UREA-C2-CG2O6
197 1 5 -0.608053 10.8571192583 8.4871084161 -3.9131134592 # HAA25-1-UREA-O2-OG2D1
198 1 4 -0.927599 8.7306972155 8.1101188025 -4.5922555205 # HAA25-1-UREA-N3-NG2S2
199 1 1 0.38412 7.9155521837 8.4846336288 -5.0106505163 # HAA25-1-UREA-H31-HGP1
200 1 1 0.385512 8.7076508176 7.2595450950 -4.0645447410 # HAA25-1-UREA-H32-HGP1
201 1 4 -0.9306 -4.2320695179 12.0391543731 5.3187038246 # HAA26-1-UREA-N1-NG2S2
202 1 1 0.38644 -4.1254544269 12.4002332274 6.2477598199 # HAA26-1-UREA-H11-HGP1
203 1 1 0.385614 -3.6735537369 11.2646530205 5.0413791622 # HAA26-1-UREA-H12-HGP1
204 1 3 0.924566 -4.5638405144 12.9359211073 4.3860369448 # HAA26-1-UREA-C2-CG2O6
205 1 5 -0.608053 -4.7429698398 14.1269822938 4.6294658313 # HAA26-1-UREA-O2-OG2D1
206 1 4 -0.927599 -4.6851881125 12.3907635251 3.1779989753 # HAA26-1-UREA-N3-NG2S2
207 1 1 0.38412 -4.5956625975 11.4151138089 3.0582512810 # HAA26-1-UREA-H31-HGP1
208 1 1 0.385512 -5.0794474635 12.9451645061 2.4458209227 # HAA26-1-UREA-H32-HGP1
209 1 4 -0.9306 1.2830651549 3.1244638164 13.3907961702 # HAA27-1-UREA-N1-NG2S2
210 1 1 0.38644 2.1006562531 3.3681535323 13.8987634859 # HAA27-1-UREA-H11-HGP1
211 1 1 0.385614 1.2392796875 3.3563082556 12.4267123069 # HAA27-1-UREA-H12-HGP1
212 1 3 0.924566 0.1493990205 3.2623076351 14.0725859298 # HAA27-1-UREA-C2-CG2O6
213 1 5 -0.608053 0.0730757138 3.4395575227 15.2895935207 # HAA27-1-UREA-O2-OG2D1
214 1 4 -0.927599 -0.9083008030 3.1931894738 13.2792973820 # HAA27-1-UREA-N3-NG2S2
215 1 1 0.38412 -0.7467545184 3.0480501206 12.3130316077 # HAA27-1-UREA-H31-HGP1
216 1 1 0.385512 -1.7612555909 2.8935931380 13.7212050865 # HAA27-1-UREA-H32-HGP1
217 1 4 -0.9306 9.1392848536 -4.9518197900 10.3979437599 # HAA28-1-UREA-N1-NG2S2
218 1 1 0.38644 9.9436491225 -5.0364485384 10.9734777638 # HAA28-1-UREA-H11-HGP1
219 1 1 0.385614 9.1165799635 -5.3322889101 9.4741642197 # HAA28-1-UREA-H12-HGP1
220 1 3 0.924566 7.9845483564 -4.7329345528 11.0132548005 # HAA28-1-UREA-C2-CG2O6
221 1 5 -0.608053 7.8908131973 -4.5046213892 12.2170935397 # HAA28-1-UREA-O2-OG2D1
222 1 4 -0.927599 6.9417693856 -4.8105073765 10.1966284502 # HAA28-1-UREA-N3-NG2S2
223 1 1 0.38412 7.0957080967 -5.2802302315 9.3231334860 # HAA28-1-UREA-H31-HGP1
224 1 1 0.385512 6.0522495175 -4.7756869056 10.6299762083 # HAA28-1-UREA-H32-HGP1
225 1 4 -0.9306 13.7958370212 -4.5870437800 -1.6863592578 # HAA29-1-UREA-N1-NG2S2
226 1 1 0.38644 13.6412513436 -4.2120373686 -0.7761436401 # HAA29-1-UREA-H11-HGP1
227 1 1 0.385614 13.8776687196 -5.5603432197 -1.8545581012 # HAA29-1-UREA-H12-HGP1
228 1 3 0.924566 13.4741957934 -3.7499752893 -2.6713417924 # HAA29-1-UREA-C2-CG2O6
229 1 5 -0.608053 13.2602124852 -2.5629946002 -2.4481271802 # HAA29-1-UREA-O2-OG2D1
230 1 4 -0.927599 13.4347758131 -4.2998555537 -3.8932412199 # HAA29-1-UREA-N3-NG2S2
231 1 1 0.38412 13.8471289679 -5.1993723684 -4.0104566790 # HAA29-1-UREA-H31-HGP1
232 1 1 0.385512 13.3782575090 -3.6575099550 -4.6528615734 # HAA29-1-UREA-H32-HGP1
233 1 4 -0.9306 13.7669761882 -2.2066434192 5.8054049154 # HAA30-1-UREA-N1-NG2S2
234 1 1 0.38644 13.7596634714 -1.9622928870 6.7784393882 # HAA30-1-UREA-H11-HGP1
235 1 1 0.385614 14.1188432456 -3.0805668147 5.4901385761 # HAA30-1-UREA-H12-HGP1
236 1 3 0.924566 13.3666106888 -1.3070585304 4.9167464605 # HAA30-1-UREA-C2-CG2O6
237 1 5 -0.608053 13.0927090570 -0.1335254507 5.1728105517 # HAA30-1-UREA-O2-OG2D1
238 1 4 -0.927599 13.3439260128 -1.8672325978 3.7089923412 # HAA30-1-UREA-N3-NG2S2
239 1 1 0.38412 13.9225162238 -2.6700784778 3.5585863923 # HAA30-1-UREA-H31-HGP1
240 1 1 0.385512 12.9921606429 -1.3331429838 2.9474583603 # HAA30-1-UREA-H32-HGP1
241 1 4 -0.9306 -8.2164870502 -10.6970994350 1.1921870303 # HAA31-1-UREA-N1-NG2S2
242 1 1 0.38644 -7.3151856553 -10.3024668081 1.3044392396 # HAA31-1-UREA-H11-HGP1
243 1 1 0.385614 -8.9488029428 -10.2252426268 0.7162187982 # HAA31-1-UREA-H12-HGP1
244 1 3 0.924566 -8.5873837651 -11.5614863007 2.1236376895 # HAA31-1-UREA-C2-CG2O6
245 1 5 -0.608053 -7.8679211189 -12.0390237738 3.0002728006 # HAA31-1-UREA-O2-OG2D1
246 1 4 -0.927599 -9.8748770506 -11.8389674006 1.9612218754 # HAA31-1-UREA-N3-NG2S2
247 1 1 0.38412 -10.2055316095 -11.7307007311 1.0258194749 # HAA31-1-UREA-H31-HGP1
248 1 1 0.385512 -10.1578456266 -12.6827769315 2.4132173444 # HAA31-1-UREA-H32-HGP1
249 1 4 -0.9306 -14.0128808959 -0.8238300248 -0.0528884420 # HAA32-1-UREA-N1-NG2S2
250 1 1 0.38644 -13.6931501689 -0.7493849708 0.8890112903 # HAA32-1-UREA-H11-HGP1
251 1 1 0.385614 -13.8226354401 -1.6006357922 -0.6366977635 # HAA32-1-UREA-H12-HGP1
252 1 3 0.924566 -14.6634973011 0.2179680580 -0.5878381230 # HAA32-1-UREA-C2-CG2O6
253 1 5 -0.608053 -14.9546630714 1.2418803947 0.0303848351 # HAA32-1-UREA-O2-OG2D1
254 1 4 -0.927599 -14.9174177206 0.0298249190 -1.8931934123 # HAA32-1-UREA-N3-NG2S2
255 1 1 0.38412 -14.6267738727 -0.8104393453 -2.3463427036 # HAA32-1-UREA-H31-HGP1
256 1 1 0.385512 -15.5127968962 0.7022687238 -2.3190561664 # HAA32-1-UREA-H32-HGP1
257 1 4 -0.9306 3.8375604550 -0.2664512058 -14.6037283669 # HAA33-1-UREA-N1-NG2S2
258 1 1 0.38644 4.6706596099 -0.3895766902 -14.0783055489 # HAA33-1-UREA-H11-HGP1
259 1 1 0.385614 3.7842123384 -0.5250608601 -15.5594145747 # HAA33-1-UREA-H12-HGP1
260 1 3 0.924566 2.7516155689 -0.4243556264 -13.8693349335 # HAA33-1-UREA-C2-CG2O6
261 1 5 -0.608053 2.7974657524 -0.5584386452 -12.6493225709 # HAA33-1-UREA-O2-OG2D1
262 1 4 -0.927599 1.6337771218 -0.4577036203 -14.6004235608 # HAA33-1-UREA-N3-NG2S2
263 1 1 0.38412 1.6590063994 0.0850558650 -15.4363181004 # HAA33-1-UREA-H31-HGP1
264 1 1 0.385512 0.7812914183 -0.5316291622 -14.0755664516 # HAA33-1-UREA-H32-HGP1
265 1 4 -0.9306 -7.2792824405 8.5625431685 -8.4630679518 # HAA34-1-UREA-N1-NG2S2
266 1 1 0.38644 -7.3938157327 9.1625260661 -7.6784682263 # HAA34-1-UREA-H11-HGP1
267 1 1 0.385614 -7.7685659363 7.6937186094 -8.5457518687 # HAA34-1-UREA-H12-HGP1
268 1 3 0.924566 -6.9900996983 9.2133792094 -9.5878091831 # HAA34-1-UREA-C2-CG2O6
269 1 5 -0.608053 -6.7860620215 10.4236972871 -9.5928488710 # HAA34-1-UREA-O2-OG2D1
270 1 4 -0.927599 -7.0243163800 8.4458628545 -10.6796190743 # HAA34-1-UREA-N3-NG2S2
271 1 1 0.38412 -7.3120584331 7.5033543686 -10.5873148788 # HAA34-1-UREA-H31-HGP1
272 1 1 0.385512 -7.0982266531 8.9138494010 -11.5663707461 # HAA34-1-UREA-H32-HGP1
273 1 4 -0.9306 2.8238277466 15.2179812167 -2.1248755615 # HAA35-1-UREA-N1-NG2S2
274 1 1 0.38644 2.7987902683 16.2083347470 -2.0963616440 # HAA35-1-UREA-H11-HGP1
275 1 1 0.385614 2.0110332122 14.6732592036 -1.9318478164 # HAA35-1-UREA-H12-HGP1
276 1 3 0.924566 3.7404415193 14.6433020576 -2.9014430926 # HAA35-1-UREA-C2-CG2O6
277 1 5 -0.608053 4.7637590855 15.2149150754 -3.2773767575 # HAA35-1-UREA-O2-OG2D1
278 1 4 -0.927599 3.3918709268 13.4052420581 -3.2383295324 # HAA35-1-UREA-N3-NG2S2
279 1 1 0.38412 2.6213305804 12.9731218770 -2.7786571051 # HAA35-1-UREA-H31-HGP1
280 1 1 0.385512 4.1254795755 12.8461183125 -3.6009285618 # HAA35-1-UREA-H32-HGP1
281 1 4 -0.9306 -1.1989530597 7.4476534700 -13.2138940224 # HAA36-1-UREA-N1-NG2S2
282 1 1 0.38644 -0.9050633191 8.3963676302 -13.2625241816 # HAA36-1-UREA-H11-HGP1
283 1 1 0.385614 -2.1450999761 7.2287757470 -13.4298640819 # HAA36-1-UREA-H12-HGP1
284 1 3 0.924566 -0.3003262097 6.5793058645 -13.6605831335 # HAA36-1-UREA-C2-CG2O6
285 1 5 -0.608053 0.8970823305 6.8236800506 -13.8068923484 # HAA36-1-UREA-O2-OG2D1
286 1 4 -0.927599 -0.8437888303 5.3934709148 -13.9088627461 # HAA36-1-UREA-N3-NG2S2
287 1 1 0.38412 -1.7999821249 5.2599703834 -13.6774748453 # HAA36-1-UREA-H31-HGP1
288 1 1 0.385512 -0.3363623164 4.7339180871 -14.4593567356 # HAA36-1-UREA-H32-HGP1
289 1 4 -0.9306 15.0315499074 5.6753628780 0.4156074629 # HAA37-1-UREA-N1-NG2S2
290 1 1 0.38644 15.9443536933 6.0297349220 0.6104542585 # HAA37-1-UREA-H11-HGP1
291 1 1 0.385614 14.4099620437 6.1624135249 -0.1804233516 # HAA37-1-UREA-H12-HGP1
292 1 3 0.924566 14.5095206117 4.8639678757 1.3329524580 # HAA37-1-UREA-C2-CG2O6
293 1 5 -0.608053 15.1157434471 4.4407943419 2.3153466278 # HAA37-1-UREA-O2-OG2D1
294 1 4 -0.927599 13.2474834719 4.5463429717 1.0539253647 # HAA37-1-UREA-N3-NG2S2
295 1 1 0.38412 12.8431920075 4.8362168931 0.1921945986 # HAA37-1-UREA-H31-HGP1
296 1 1 0.385512 12.7612607448 3.9638010493 1.6991997628 # HAA37-1-UREA-H32-HGP1
297 1 4 -0.9306 -12.5002181620 -1.2867849205 -7.5143313333 # HAA38-1-UREA-N1-NG2S2
298 1 1 0.38644 -12.4744447729 -1.1749012632 -6.5239736185 # HAA38-1-UREA-H11-HGP1
299 1 1 0.385614 -12.2464177605 -2.1574576850 -7.9240795890 # HAA38-1-UREA-H12-HGP1
300 1 3 0.924566 -13.1533827331 -0.3985576199 -8.2562572231 # HAA38-1-UREA-C2-CG2O6
301 1 5 -0.608053 -13.5573310703 0.6936391863 -7.8544163370 # HAA38-1-UREA-O2-OG2D1
302 1 4 -0.927599 -13.3268647134 -0.8367685731 -9.4987505536 # HAA38-1-UREA-N3-NG2S2
303 1 1 0.38412 -12.9625810976 -1.7354853315 -9.7192291130 # HAA38-1-UREA-H31-HGP1
304 1 1 0.385512 -13.9523300410 -0.3482977288 -10.0950227869 # HAA38-1-UREA-H32-HGP1
305 1 4 -0.9306 5.1286068426 -7.3447447343 -13.0282331310 # HAA39-1-UREA-N1-NG2S2
306 1 1 0.38644 6.0430608080 -6.9522724122 -13.0718363639 # HAA39-1-UREA-H11-HGP1
307 1 1 0.385614 4.3110051401 -6.8448360220 -13.3024615696 # HAA39-1-UREA-H12-HGP1
308 1 3 0.924566 4.9819270194 -8.3627378759 -12.1809673125 # HAA39-1-UREA-C2-CG2O6
309 1 5 -0.608053 5.8540135214 -8.7286508433 -11.3934210381 # HAA39-1-UREA-O2-OG2D1
310 1 4 -0.927599 3.7632459118 -8.9017546758 -12.2386958775 # HAA39-1-UREA-N3-NG2S2
311 1 1 0.38412 3.0800096036 -8.5199958235 -12.8561781497 # HAA39-1-UREA-H31-HGP1
312 1 1 0.385512 3.6190204221 -9.7136289487 -11.6880600761 # HAA39-1-UREA-H32-HGP1
313 1 4 -0.9306 8.5998448593 5.0191721666 -11.2601599629 # HAA40-1-UREA-N1-NG2S2
314 1 1 0.38644 8.6236601472 5.1593470386 -10.2752127141 # HAA40-1-UREA-H11-HGP1
315 1 1 0.385614 8.7121350402 4.1241741697 -11.6779562832 # HAA40-1-UREA-H12-HGP1
316 1 3 0.924566 8.0639471049 6.0107732033 -11.9569472466 # HAA40-1-UREA-C2-CG2O6
317 1 5 -0.608053 7.6912134395 7.0711537872 -11.4495246929 # HAA40-1-UREA-O2-OG2D1
318 1 4 -0.927599 7.8824227635 5.6900213912 -13.2363085450 # HAA40-1-UREA-N3-NG2S2
319 1 1 0.38412 8.0859245906 4.7606555709 -13.5153230239 # HAA40-1-UREA-H31-HGP1
320 1 1 0.385512 7.2404606685 6.2646599005 -13.7269963813 # HAA40-1-UREA-H32-HGP1
321 1 4 -0.9306 -12.4208465211 6.9521149239 -5.1756026092 # HAA41-1-UREA-N1-NG2S2
322 1 1 0.38644 -11.4736013611 6.9901516396 -4.8520743829 # HAA41-1-UREA-H11-HGP1
323 1 1 0.385614 -12.6689794598 7.1736787973 -6.1096995167 # HAA41-1-UREA-H12-HGP1
324 1 3 0.924566 -13.3705239636 6.6372894806 -4.3056393530 # HAA41-1-UREA-C2-CG2O6
325 1 5 -0.608053 -13.1661530510 6.3996987300 -3.1146727978 # HAA41-1-UREA-O2-OG2D1
326 1 4 -0.927599 -14.5686155135 6.6322109684 -4.8872791459 # HAA41-1-UREA-N3-NG2S2
327 1 1 0.38412 -14.6423919452 7.0575597287 -5.7888801684 # HAA41-1-UREA-H31-HGP1
328 1 1 0.385512 -15.3347165409 6.5571280774 -4.2554990285 # HAA41-1-UREA-H32-HGP1
329 1 4 -0.9306 -2.9116561868 -7.9304995704 -12.6196653582 # HAA42-1-UREA-N1-NG2S2
330 1 1 0.38644 -2.8134279233 -7.6931047237 -11.6582862592 # HAA42-1-UREA-H11-HGP1
331 1 1 0.385614 -2.9227115760 -8.8837056092 -12.8914195087 # HAA42-1-UREA-H12-HGP1
332 1 3 0.924566 -3.3044389153 -7.0074623494 -13.4930362137 # HAA42-1-UREA-C2-CG2O6
333 1 5 -0.608053 -3.5139240424 -5.8345089888 -13.1833649332 # HAA42-1-UREA-O2-OG2D1
334 1 4 -0.927599 -3.4922752533 -7.4984531269 -14.7146208455 # HAA42-1-UREA-N3-NG2S2
335 1 1 0.38412 -3.1432334242 -8.4107175181 -14.8890783096 # HAA42-1-UREA-H31-HGP1
336 1 1 0.385512 -3.5871016863 -6.8472040976 -15.4693425935 # HAA42-1-UREA-H32-HGP1
337 1 4 -0.9306 -1.4643018883 10.0533886834 12.1253942788 # HAA43-1-UREA-N1-NG2S2
338 1 1 0.38644 -1.0178206885 9.9769461502 13.0095114831 # HAA43-1-UREA-H11-HGP1
339 1 1 0.385614 -1.3791456750 9.3229805323 11.4519791287 # HAA43-1-UREA-H12-HGP1
340 1 3 0.924566 -2.5345251800 10.8440233522 12.0435716458 # HAA43-1-UREA-C2-CG2O6
341 1 5 -0.608053 -2.9083397533 11.6241313827 12.9207804873 # HAA43-1-UREA-O2-OG2D1
342 1 4 -0.927599 -3.1850097235 10.7259366301 10.8892140581 # HAA43-1-UREA-N3-NG2S2
343 1 1 0.38412 -2.8997829871 10.0470351034 10.2301496359 # HAA43-1-UREA-H31-HGP1
344 1 1 0.385512 -4.1175613731 11.0690504636 10.8679032011 # HAA43-1-UREA-H32-HGP1
345 1 4 -0.9306 10.2591454367 11.7267610328 4.8510651167 # HAA44-1-UREA-N1-NG2S2
346 1 1 0.38644 10.0997313307 12.4736083986 5.5005616354 # HAA44-1-UREA-H11-HGP1
347 1 1 0.385614 9.6084875353 10.9810650401 4.7886395062 # HAA44-1-UREA-H12-HGP1
348 1 3 0.924566 10.8669958436 12.0428231064 3.7119655280 # HAA44-1-UREA-C2-CG2O6
349 1 5 -0.608053 11.3369877172 13.1409185319 3.4182027360 # HAA44-1-UREA-O2-OG2D1
350 1 4 -0.927599 10.8077248899 11.0069987793 2.8886861782 # HAA44-1-UREA-N3-NG2S2
351 1 1 0.38412 10.5695340913 10.1064178208 3.2342756636 # HAA44-1-UREA-H31-HGP1
352 1 1 0.385512 11.1333521692 11.1721007561 1.9618019008 # HAA44-1-UREA-H32-HGP1
353 1 4 -0.9306 1.6084541214 -5.6199243356 16.0959189357 # HAA45-1-UREA-N1-NG2S2
354 1 1 0.38644 1.2169849657 -5.0298413853 16.7979144193 # HAA45-1-UREA-H11-HGP1
355 1 1 0.385614 1.4800755175 -6.6095471131 16.1594734691 # HAA45-1-UREA-H12-HGP1
356 1 3 0.924566 1.8687122269 -5.0671950706 14.9044229959 # HAA45-1-UREA-C2-CG2O6
357 1 5 -0.608053 1.8796967798 -3.8587959229 14.6856488006 # HAA45-1-UREA-O2-OG2D1
358 1 4 -0.927599 2.0721853798 -5.9623651664 13.9453470844 # HAA45-1-UREA-N3-NG2S2